LAMMPS data file via write_data, version 7 Aug 2019, timestep = 500238

500 atoms
2 atom types

0.0000000000000000e+00 2.0412414523193153e+01 xlo xhi
0.0000000000000000e+00 2.0412414523193153e+01 ylo yhi
-5.0000000000000000e+00 5.0000000000000000e+00 zlo zhi

Masses

1 1
2 1

Pair Coeffs # lj/cut

1 1 1
2 0.5 0.88

Atoms # atomic

463 1 7.4511452026894423e-02 1.4276407288056736e+00 0.0000000000000000e+00 0 1 0
231 1 1.1897615708403850e+00 9.3809566672320222e-01 0.0000000000000000e+00 1 1 0
402 1 6.1433029162613528e-01 2.4244627286812661e+00 0.0000000000000000e+00 1 1 0
292 1 2.1548729047323065e+00 1.2912209857523682e+00 0.0000000000000000e+00 1 2 0
85 1 2.2559315839627665e+00 2.4191970255940318e-01 0.0000000000000000e+00 0 1 0
70 1 1.4212325851091094e+00 2.8416376914721226e+00 0.0000000000000000e+00 1 1 0
96 2 1.4856067318861683e+00 1.8903666907824999e+00 0.0000000000000000e+00 1 1 0
239 2 2.9925320285112451e+00 8.5876152786523352e-01 0.0000000000000000e+00 0 1 0
222 1 3.8043254727400160e+00 6.7197783341182060e-01 0.0000000000000000e+00 0 1 0
266 1 3.0616264294465378e+00 1.7470338617171501e+00 0.0000000000000000e+00 0 1 0
54 2 3.8951109537584365e+00 1.4520674333735351e+00 0.0000000000000000e+00 0 0 0
211 1 3.9160882131228512e+00 2.3293235060753252e+00 0.0000000000000000e+00 -1 0 0
155 2 4.7259604384086691e+00 2.0926093294096568e+00 0.0000000000000000e+00 0 1 0
220 2 5.4868947541164204e+00 6.8054588681897443e-01 0.0000000000000000e+00 1 0 0
447 1 6.1188728348085606e+00 1.5536086474347792e+00 0.0000000000000000e+00 -1 0 0
308 1 4.8181953024028301e+00 1.2838123210182202e+00 0.0000000000000000e+00 0 1 0
63 1 6.2704191075818665e+00 5.7648675526625215e-01 0.0000000000000000e+00 0 0 0
197 2 6.6279226985177377e+00 2.0255709792987648e+01 0.0000000000000000e+00 1 1 0
341 1 7.3831756078485693e+00 1.6106174592718334e+00 0.0000000000000000e+00 0 1 0
354 2 7.8174111461247939e+00 1.0352642984235434e+00 0.0000000000000000e+00 0 0 0
491 1 8.4263996960357392e+00 1.8275439105829299e+00 0.0000000000000000e+00 1 1 0
394 2 7.0036212705441985e+00 8.0606384084986593e-01 0.0000000000000000e+00 0 0 0
90 1 9.4937687440741865e+00 1.5659153714931122e+00 0.0000000000000000e+00 0 0 0
193 1 8.6262710236114017e+00 8.3723448703214653e-01 0.0000000000000000e+00 1 0 0
203 1 7.4925667488371319e+00 2.1414967202902624e-01 0.0000000000000000e+00 0 0 0
114 2 9.9462850744848375e+00 2.3243803813680728e+00 0.0000000000000000e+00 1 1 0
269 1 1.0827745526598852e+01 1.0707442780854566e+00 0.0000000000000000e+00 0 0 0
432 1 1.0682686736481719e+01 2.0829525486475275e+00 0.0000000000000000e+00 1 0 0
126 1 1.0816358311267415e+01 1.1882163710271645e-01 0.0000000000000000e+00 0 1 0
312 1 9.9189987494692176e+00 7.2336575136707471e-01 0.0000000000000000e+00 -1 -1 0
56 2 1.1648817355871790e+01 3.2190266871974166e-01 0.0000000000000000e+00 0 0 0
44 1 1.2078120979000069e+01 1.0562210130891014e+00 0.0000000000000000e+00 0 0 0
483 1 1.2507743063775653e+01 1.8462973056530836e-02 0.0000000000000000e+00 1 0 0
406 1 1.3117212681731067e+01 9.0309900742066163e-01 0.0000000000000000e+00 0 1 0
61 1 1.2719533206610349e+01 1.9981070899407058e+00 0.0000000000000000e+00 -1 -1 0
465 1 1.1623594216264566e+01 1.9052102710947101e+00 0.0000000000000000e+00 -1 -1 0
219 2 1.3698233882004542e+01 1.5119318187013917e+00 0.0000000000000000e+00 -1 0 0
87 1 1.5318239449057543e+01 1.6269059832198061e+00 0.0000000000000000e+00 0 1 0
325 1 1.5202863645268408e+01 5.9083642385342094e-01 0.0000000000000000e+00 1 -1 0
477 2 1.4670722125501966e+01 2.1022475301326291e+00 0.0000000000000000e+00 0 0 0
306 1 1.4280810467392211e+01 7.5896606678659995e-01 0.0000000000000000e+00 -1 0 0
216 2 1.5906825277455688e+01 9.6510488356095003e-01 0.0000000000000000e+00 -1 1 0
370 1 1.6096624100873164e+01 1.0594206099930478e-01 0.0000000000000000e+00 -1 -1 0
6 1 1.6282545680160368e+01 1.8215067923341861e+00 0.0000000000000000e+00 0 1 0
127 1 1.6945569623287749e+01 9.3775367432408052e-01 0.0000000000000000e+00 -1 1 0
237 2 1.7726951295791917e+01 1.5051371741525463e+00 0.0000000000000000e+00 0 1 0
384 1 1.7234427246293802e+01 2.0606151133504871e+00 0.0000000000000000e+00 0 1 0
99 2 1.9935802868884810e+01 4.2400785570202010e-01 0.0000000000000000e+00 -1 2 0
363 1 1.7877350009835308e+01 6.0684908712583285e-01 0.0000000000000000e+00 0 1 0
437 2 1.9823408400977623e+01 2.0058852636053022e+00 0.0000000000000000e+00 -1 1 0
473 1 1.9488094538715938e+01 1.2084781580190211e+00 0.0000000000000000e+00 -1 0 0
268 1 1.8456512632941550e+01 1.3927607284756289e+00 0.0000000000000000e+00 0 1 0
180 2 1.8899840713200373e+01 6.9223664524477646e-01 0.0000000000000000e+00 -1 1 0
79 2 1.8006488894645067e+01 2.2372257473588424e+00 0.0000000000000000e+00 0 1 0
117 2 1.5664015740643424e+00 3.7523796557989435e+00 0.0000000000000000e+00 1 1 0
167 1 9.5330669166189341e-01 4.3769031083462000e+00 0.0000000000000000e+00 1 1 0
233 1 6.7544254045642060e-01 3.4033344583759506e+00 0.0000000000000000e+00 1 0 0
192 1 2.1784295064645076e+00 4.3016525311136036e+00 0.0000000000000000e+00 1 0 0
287 1 2.0294694597570270e+01 4.3466142325948542e+00 0.0000000000000000e+00 -1 0 0
379 2 3.0843418192410152e+00 2.7193205377705536e+00 0.0000000000000000e+00 1 0 0
267 1 2.4259436219797128e+00 3.2362432218850103e+00 0.0000000000000000e+00 0 1 0
428 1 3.9648677871651845e+00 3.4071530790334559e+00 0.0000000000000000e+00 0 0 0
446 1 2.2482573756733739e+00 2.2636266198539587e+00 0.0000000000000000e+00 1 1 0
229 1 4.8577117905191054e+00 2.9748649810887069e+00 0.0000000000000000e+00 0 0 0
158 2 3.1590006572506404e+00 3.7428838889046858e+00 0.0000000000000000e+00 1 0 0
66 1 3.7181046462094884e+00 4.3842098316252232e+00 0.0000000000000000e+00 1 1 0
14 2 4.5290608231113128e+00 4.3342737964559577e+00 0.0000000000000000e+00 1 0 0
17 2 6.3392704185146105e+00 3.3810426715011084e+00 0.0000000000000000e+00 0 0 0
89 1 5.4070241150386460e+00 3.7872321654020000e+00 0.0000000000000000e+00 0 1 0
109 1 5.8917875256964605e+00 2.6882871316112764e+00 0.0000000000000000e+00 1 0 0
147 1 6.9799916056241464e+00 3.8637436023350271e+00 0.0000000000000000e+00 1 0 0
37 2 6.7265747406305474e+00 2.0776712956909860e+00 0.0000000000000000e+00 0 0 0
112 1 7.0110985920399456e+00 2.8477928312104046e+00 0.0000000000000000e+00 1 0 0
371 1 8.0339438316370444e+00 2.6823981278942060e+00 0.0000000000000000e+00 1 0 0
498 2 7.7759579904357965e+00 3.4491959516102582e+00 0.0000000000000000e+00 1 1 0
253 1 8.5567147720345460e+00 3.6342556200765483e+00 0.0000000000000000e+00 -1 1 0
26 1 7.7460487518477263e+00 4.3591849107411456e+00 0.0000000000000000e+00 1 -1 0
46 1 9.0790571280526553e+00 2.5669788029577578e+00 0.0000000000000000e+00 0 1 0
244 1 1.0643856130854600e+01 3.1264387535351239e+00 0.0000000000000000e+00 -1 0 0
78 2 9.2674085302467404e+00 4.0848800536668302e+00 0.0000000000000000e+00 0 1 0
91 1 9.7315068509365474e+00 3.2603930619180677e+00 0.0000000000000000e+00 0 0 0
466 1 1.0395948880060638e+01 4.1576133333874772e+00 0.0000000000000000e+00 0 0 0
232 1 1.1487136154254681e+01 3.7041717525153270e+00 0.0000000000000000e+00 1 0 0
296 2 1.1434720605574197e+01 2.8442260774682797e+00 0.0000000000000000e+00 0 0 0
214 2 1.2393814752447023e+01 3.7749609599754224e+00 0.0000000000000000e+00 0 0 0
385 1 1.2331709899295502e+01 3.0001721563398416e+00 0.0000000000000000e+00 -1 0 0
200 2 1.3268688043486490e+01 2.6838923669899990e+00 0.0000000000000000e+00 0 1 0
141 1 1.3248658819048387e+01 3.5720828026921612e+00 0.0000000000000000e+00 -2 0 0
182 1 1.3934652530749098e+01 2.2585255499571404e+00 0.0000000000000000e+00 0 0 0
245 1 1.4043982036684795e+01 3.1643841872289471e+00 0.0000000000000000e+00 0 0 0
55 2 1.4661142125446228e+01 3.7866391964646402e+00 0.0000000000000000e+00 0 0 0
106 1 1.5763528921088565e+01 3.5225872967305745e+00 0.0000000000000000e+00 0 0 0
190 1 1.5010194867172956e+01 2.8341952917654893e+00 0.0000000000000000e+00 0 1 0
496 2 1.5615335646302995e+01 2.4283462777739317e+00 0.0000000000000000e+00 -1 1 0
433 1 1.5294959436158218e+01 4.3848013725885115e+00 0.0000000000000000e+00 0 0 0
10 1 1.3912331299679481e+01 4.3412635427323849e+00 0.0000000000000000e+00 -1 0 0
401 1 1.6452926573603555e+01 2.7559921258347830e+00 0.0000000000000000e+00 -1 0 0
218 2 1.7404804743653859e+01 2.8784065227461255e+00 0.0000000000000000e+00 -1 0 0
344 1 1.7094006294340158e+01 3.5856188915369374e+00 0.0000000000000000e+00 0 0 0
101 1 1.6407731201194476e+01 4.2765581903446552e+00 0.0000000000000000e+00 -1 -1 0
332 1 1.8266443597629987e+01 3.0939179368618075e+00 0.0000000000000000e+00 0 2 0
281 1 1.7965953931923149e+01 4.0205651124492263e+00 0.0000000000000000e+00 0 0 0
391 1 1.9995731010816368e+01 2.7850769681530569e+00 0.0000000000000000e+00 0 1 0
497 2 2.0312465234649913e+01 3.5384385935336979e+00 0.0000000000000000e+00 -1 0 0
351 1 1.8963818204893869e+01 2.3567475712078516e+00 0.0000000000000000e+00 2 1 0
261 1 1.8779937819301033e+01 4.4592036626520342e+00 0.0000000000000000e+00 -1 1 0
303 1 1.9367225212633578e+01 3.6212911194412305e+00 0.0000000000000000e+00 0 0 0
177 2 1.6140537437803075e+00 4.8355249117439003e+00 0.0000000000000000e+00 0 0 0
484 1 1.2590940449634951e+00 5.6775416618366696e+00 0.0000000000000000e+00 0 0 0
53 1 4.8495832153477220e-01 6.4142946283559397e+00 0.0000000000000000e+00 0 0 0
438 2 2.4478500142797079e+00 6.9776997033322088e+00 0.0000000000000000e+00 0 -1 0
295 2 6.4104580274533329e-01 5.0872719942344657e+00 0.0000000000000000e+00 1 1 0
125 1 4.3314336732099807e+00 5.1289114292460489e+00 0.0000000000000000e+00 1 0 0
346 1 2.1394599032226331e+00 6.0143514543620054e+00 0.0000000000000000e+00 0 0 0
13 1 2.7068972671456728e+00 5.0958288658424253e+00 0.0000000000000000e+00 1 0 0
18 2 3.5485423138057270e+00 5.3710129721997033e+00 0.0000000000000000e+00 0 1 0
2 1 3.1104721071594237e+00 6.3912537261370650e+00 0.0000000000000000e+00 -1 -1 0
41 1 4.0418987643581588e+00 6.1516520137003372e+00 0.0000000000000000e+00 1 1 0
435 2 5.1313784819002768e+00 5.7136194932348614e+00 0.0000000000000000e+00 -1 1 0
172 1 5.4269811610540870e+00 4.7790387270443997e+00 0.0000000000000000e+00 0 0 0
86 1 5.4575962705613081e+00 6.4737248243326402e+00 0.0000000000000000e+00 0 0 0
279 2 6.2371150170253316e+00 6.4615456174899686e+00 0.0000000000000000e+00 1 0 0
1 1 6.0978075025022216e+00 5.7003843911742642e+00 0.0000000000000000e+00 1 0 0
434 2 6.2529781286461104e+00 4.1565032993865101e+00 0.0000000000000000e+00 1 0 0
241 1 8.6465807223229110e+00 4.8436341624120409e+00 0.0000000000000000e+00 1 1 0
49 1 7.1622018639050209e+00 6.0470815163622085e+00 0.0000000000000000e+00 0 0 0
457 2 7.6412674260604820e+00 5.1445074773930788e+00 0.0000000000000000e+00 0 0 0
282 1 6.7530789774718398e+00 4.8872196609935941e+00 0.0000000000000000e+00 1 0 0
467 1 8.1998523530256282e+00 5.8381281405912100e+00 0.0000000000000000e+00 2 1 0
459 2 7.7167208386579853e+00 6.7024508661162443e+00 0.0000000000000000e+00 0 0 0
426 1 9.6388999796290413e+00 4.7640723314624980e+00 0.0000000000000000e+00 0 1 0
398 2 1.0429278764621950e+01 4.9883956093464770e+00 0.0000000000000000e+00 0 1 0
382 1 1.1214858341489961e+01 4.7450115060778115e+00 0.0000000000000000e+00 0 1 0
59 2 9.3589626348421806e+00 5.4835611069633998e+00 0.0000000000000000e+00 1 -1 0
431 1 9.3266249014091880e+00 6.3161838828594128e+00 0.0000000000000000e+00 0 1 0
448 1 1.0154968366262787e+01 5.8134752369899498e+00 0.0000000000000000e+00 0 0 0
271 1 1.0887254798215967e+01 6.5221849543749961e+00 0.0000000000000000e+00 0 1 0
154 2 1.1316460796754765e+01 5.6483740231153403e+00 0.0000000000000000e+00 0 -1 0
71 1 1.2890341246495767e+01 4.5323238930089387e+00 0.0000000000000000e+00 -1 -1 0
340 2 1.1960188244843115e+01 4.5165838036072170e+00 0.0000000000000000e+00 0 1 0
386 1 1.2103836876281592e+01 5.3083353115020993e+00 0.0000000000000000e+00 0 1 0
122 1 1.1833627462219546e+01 6.3175470722691793e+00 0.0000000000000000e+00 -1 -1 0
487 1 1.3018426107711990e+01 5.6246528693024738e+00 0.0000000000000000e+00 0 1 0
81 1 1.3568344319636076e+01 6.3517487782414817e+00 0.0000000000000000e+00 1 0 0
217 2 1.2708559592706692e+01 6.4055371517935757e+00 0.0000000000000000e+00 0 0 0
317 2 1.3596284166951309e+01 5.1051003844313314e+00 0.0000000000000000e+00 0 0 0
82 1 1.4285602938410870e+01 5.5844807523517890e+00 0.0000000000000000e+00 0 1 0
191 1 1.5983934648338533e+01 5.2541508044607115e+00 0.0000000000000000e+00 0 0 0
254 2 1.4619230415562631e+01 4.8172911058378372e+00 0.0000000000000000e+00 -1 0 0
256 2 1.5178946098216194e+01 5.4893036910041557e+00 0.0000000000000000e+00 -1 0 0
409 1 1.4540081967496979e+01 6.6693551116797281e+00 0.0000000000000000e+00 -1 0 0
24 1 1.5786945940796075e+01 6.2657452200008175e+00 0.0000000000000000e+00 0 0 0
319 2 1.7360892269300450e+01 4.5209919084725332e+00 0.0000000000000000e+00 0 0 0
481 1 1.7322385941785910e+01 5.3186419860674929e+00 0.0000000000000000e+00 0 1 0
500 2 1.6712565097757899e+01 6.1168223370861092e+00 0.0000000000000000e+00 0 1 0
3 1 1.7610357103244411e+01 6.3689908462122968e+00 0.0000000000000000e+00 -1 0 0
58 2 1.8226138648285374e+01 5.8373521331332281e+00 0.0000000000000000e+00 0 1 0
134 2 1.8156330392606726e+01 6.9773315324455574e+00 0.0000000000000000e+00 0 -1 0
38 2 1.9535866477951050e+01 4.8557494840073856e+00 0.0000000000000000e+00 -1 2 0
263 1 2.0277961683472391e+01 5.3855369695490261e+00 0.0000000000000000e+00 -1 0 0
257 2 1.9604212911587592e+01 5.9471702850302242e+00 0.0000000000000000e+00 -1 1 0
246 1 1.9962668312698327e+01 6.7537884208946579e+00 0.0000000000000000e+00 -1 0 0
36 2 1.8111671066278852e+01 4.9868364185098661e+00 0.0000000000000000e+00 -1 0 0
327 1 1.8970809298532497e+01 5.4834210043138496e+00 0.0000000000000000e+00 -1 0 0
362 1 1.8937555782197276e+01 6.4402115802059479e+00 0.0000000000000000e+00 -1 1 0
445 1 1.5429569054002470e+00 6.8297644311427730e+00 0.0000000000000000e+00 0 0 0
387 1 5.7768341115195543e-01 7.3714723431042373e+00 0.0000000000000000e+00 0 0 0
65 1 6.5459253787671937e-02 8.5816334164810222e+00 0.0000000000000000e+00 1 1 0
164 1 1.1059980139919836e+00 8.3406491449735274e+00 0.0000000000000000e+00 1 0 0
356 2 1.6297016866531020e+00 7.7546062461957970e+00 0.0000000000000000e+00 0 0 0
169 1 2.2980669048763041e+00 8.7609683468738666e+00 0.0000000000000000e+00 1 0 0
472 1 2.6180377783606676e+00 7.7734430533818974e+00 0.0000000000000000e+00 1 0 0
374 2 4.2692951185920496e+00 7.7491842450106097e+00 0.0000000000000000e+00 0 0 0
468 1 3.6978356816877942e+00 7.2126088129135013e+00 0.0000000000000000e+00 1 1 0
495 2 4.1029489482630304e+00 8.8442096520101003e+00 0.0000000000000000e+00 1 0 0
48 1 3.5233255190031301e+00 8.3037590531238017e+00 0.0000000000000000e+00 0 1 0
92 1 3.1247651394430251e+00 9.1730550997998908e+00 0.0000000000000000e+00 0 0 0
179 2 4.5794611833175525e+00 6.7131400742969882e+00 0.0000000000000000e+00 0 0 0
88 1 4.9862110706330496e+00 7.4427875250718474e+00 0.0000000000000000e+00 0 0 0
290 1 4.8209181910886629e+00 8.4502309327789114e+00 0.0000000000000000e+00 0 0 0
393 1 5.9998591236498857e+00 7.3403733905894972e+00 0.0000000000000000e+00 -1 0 0
186 1 6.7525545137559364e+00 8.0695010140147456e+00 0.0000000000000000e+00 0 0 0
75 2 5.6246432496565673e+00 8.1958890894423480e+00 0.0000000000000000e+00 -1 0 0
347 1 6.1851346749153802e+00 8.8805178617199978e+00 0.0000000000000000e+00 0 0 0
270 1 6.9004076970740140e+00 6.9632442186988728e+00 0.0000000000000000e+00 0 0 0
451 1 7.7180236907382387e+00 7.6589020257388869e+00 0.0000000000000000e+00 -1 0 0
372 1 8.4964816612223331e+00 6.9563692946599884e+00 0.0000000000000000e+00 1 0 0
403 1 8.8309452906284633e+00 8.0252370821691130e+00 0.0000000000000000e+00 0 -1 0
195 2 8.2296367573838882e+00 8.5159808259056060e+00 0.0000000000000000e+00 0 0 0
291 1 7.4756102988133319e+00 8.7975165265358530e+00 0.0000000000000000e+00 0 0 0
224 1 1.0452121389511088e+01 7.4116887930242044e+00 0.0000000000000000e+00 0 1 0
107 1 1.1412479060657672e+01 7.3622831988355317e+00 0.0000000000000000e+00 1 0 0
416 2 9.5788817366973600e+00 7.1929657103258284e+00 0.0000000000000000e+00 1 1 0
208 1 9.7516567838623835e+00 8.2455270893275685e+00 0.0000000000000000e+00 0 1 0
377 2 9.1777009449752995e+00 8.8811727553827176e+00 0.0000000000000000e+00 0 0 0
27 1 1.0797112781697210e+01 8.3236175201019673e+00 0.0000000000000000e+00 0 -1 0
419 2 1.0822931218391384e+01 9.3843816897760046e+00 0.0000000000000000e+00 1 -1 0
236 2 1.3299885904819750e+01 7.1340434013734058e+00 0.0000000000000000e+00 0 -1 0
283 1 1.1957347672640015e+01 8.2312884679416225e+00 0.0000000000000000e+00 0 0 0
329 1 1.2995876035277437e+01 8.0532430229005101e+00 0.0000000000000000e+00 1 0 0
45 1 1.2377244620470096e+01 7.2471969658805913e+00 0.0000000000000000e+00 1 1 0
337 2 1.3797285656296882e+01 8.3848020850451679e+00 0.0000000000000000e+00 -1 0 0
235 2 1.2424423258762184e+01 8.8649817089553231e+00 0.0000000000000000e+00 0 1 0
104 1 1.3282162068598298e+01 9.1312018646405360e+00 0.0000000000000000e+00 0 1 0
305 1 1.3959440767418460e+01 7.5152682424387756e+00 0.0000000000000000e+00 0 0 0
174 2 1.4802096149278286e+01 7.6556376156797246e+00 0.0000000000000000e+00 -1 -1 0
383 1 1.4728113091772519e+01 8.5677138669998474e+00 0.0000000000000000e+00 -1 1 0
490 1 1.5749339336969509e+01 8.1546723065384121e+00 0.0000000000000000e+00 1 0 0
102 1 1.5524655728519246e+01 7.1407562796078476e+00 0.0000000000000000e+00 -1 0 0
42 1 1.6766133798419119e+01 8.2709476440717946e+00 0.0000000000000000e+00 -1 0 0
478 2 1.6247712087906827e+01 7.5836511643794839e+00 0.0000000000000000e+00 1 1 0
150 1 1.7468748783999200e+01 7.5181776545676957e+00 0.0000000000000000e+00 -1 1 0
173 1 1.6546836869423746e+01 6.8762001299907052e+00 0.0000000000000000e+00 -1 0 0
278 2 1.7639630309396669e+01 8.3898704046301269e+00 0.0000000000000000e+00 -1 0 0
358 2 1.9141018946225131e+01 7.1936397530367930e+00 0.0000000000000000e+00 1 0 0
225 1 1.9762453456828631e+01 7.6687136431719525e+00 0.0000000000000000e+00 -1 1 0
201 1 1.8455201484534072e+01 7.8612901395594612e+00 0.0000000000000000e+00 0 0 0
139 2 1.9171591569296503e+01 8.2671931555727731e+00 0.0000000000000000e+00 0 0 0
226 1 1.8616490822527663e+01 8.9914612604421009e+00 0.0000000000000000e+00 0 0 0
57 2 6.6843376532048004e-01 9.2307878002238581e+00 0.0000000000000000e+00 1 0 0
425 1 1.4636855570467020e+00 9.4989242867885118e+00 0.0000000000000000e+00 0 0 0
159 2 8.1483015727829633e-01 1.0094355129880377e+01 0.0000000000000000e+00 1 -1 0
33 1 1.6782013348199210e+00 1.0506263117199815e+01 0.0000000000000000e+00 1 0 0
230 1 9.1115501151763012e-01 1.1195066724437073e+01 0.0000000000000000e+00 1 0 0
322 1 2.0341310563793161e+01 9.6033124285645304e+00 0.0000000000000000e+00 0 1 0
4 1 9.4150694213052749e-02 1.0644360555289797e+01 0.0000000000000000e+00 1 0 0
162 1 2.3951400426339164e+00 9.7485243968625461e+00 0.0000000000000000e+00 0 -1 0
475 2 3.0550797867502171e+00 1.0130577565399451e+01 0.0000000000000000e+00 1 0 0
123 1 2.6202898244345856e+00 1.0890463916503373e+01 0.0000000000000000e+00 0 1 0
133 1 3.7256971599931235e+00 1.0790030898518394e+01 0.0000000000000000e+00 0 0 0
331 1 3.9080958174796749e+00 9.8956820265414027e+00 0.0000000000000000e+00 0 -1 0
35 2 6.8079890140255337e+00 9.4746758880677096e+00 0.0000000000000000e+00 0 0 0
247 1 6.1851846096641721e+00 1.0135105292072630e+01 0.0000000000000000e+00 0 1 0
176 2 5.3511121020125767e+00 9.1484288956162931e+00 0.0000000000000000e+00 0 0 0
206 1 4.7632193633724240e+00 1.0433136079600736e+01 0.0000000000000000e+00 0 0 0
105 1 5.5531133534761663e+00 1.0906202692071760e+01 0.0000000000000000e+00 0 1 0
116 2 5.3968954877139375e+00 1.0078598527797750e+01 0.0000000000000000e+00 -1 -1 0
194 2 6.6914346867134489e+00 1.1040090845541656e+01 0.0000000000000000e+00 0 1 0
170 1 8.4922392311331141e+00 9.2595628724619115e+00 0.0000000000000000e+00 1 0 0
450 1 7.2085597636759111e+00 1.0182510722878350e+01 0.0000000000000000e+00 0 0 0
40 2 7.8712049192438895e+00 9.7286641563879250e+00 0.0000000000000000e+00 0 1 0
441 1 8.2874851471160795e+00 1.0572408662587756e+01 0.0000000000000000e+00 0 0 0
429 1 7.4960326524478891e+00 1.1202872975309578e+01 0.0000000000000000e+00 1 -1 0
333 1 1.0014177450893547e+01 9.1880398368442755e+00 0.0000000000000000e+00 -1 0 0
136 2 1.1446957419961926e+01 8.8619857341993313e+00 0.0000000000000000e+00 0 0 0
389 1 9.2243108165043424e+00 1.0019119730210365e+01 0.0000000000000000e+00 -1 0 0
156 2 1.0196057841349409e+01 1.0057337379028619e+01 0.0000000000000000e+00 0 0 0
9 1 9.9358229242217657e+00 1.0854421233598215e+01 0.0000000000000000e+00 0 1 0
98 2 1.0769272736896905e+01 1.0713939500087653e+01 0.0000000000000000e+00 1 0 0
103 1 1.1326684560254103e+01 1.0157088246810062e+01 0.0000000000000000e+00 0 0 0
410 1 1.1988147036405628e+01 9.5033130681195495e+00 0.0000000000000000e+00 -1 0 0
396 2 1.2077543785192070e+01 1.0385480963602431e+01 0.0000000000000000e+00 0 0 0
378 2 1.2761430670923355e+01 9.8837316771198882e+00 0.0000000000000000e+00 1 1 0
83 1 1.2646666804951519e+01 1.0852540825075399e+01 0.0000000000000000e+00 0 -1 0
361 1 1.3526716910877516e+01 1.0261815626090582e+01 0.0000000000000000e+00 0 1 0
160 2 1.4001192161125967e+01 1.1000075071934127e+01 0.0000000000000000e+00 -1 1 0
326 1 1.4618832374002963e+01 1.0364610442088901e+01 0.0000000000000000e+00 -2 -1 0
461 1 1.5299916239756216e+01 9.3989702427293480e+00 0.0000000000000000e+00 0 0 0
499 2 1.4520529814412065e+01 9.3617756706812791e+00 0.0000000000000000e+00 0 1 0
39 2 1.5188123400262615e+01 1.0876195047125570e+01 0.0000000000000000e+00 0 0 0
297 2 1.5983910804731050e+01 9.9737255751876948e+00 0.0000000000000000e+00 -1 0 0
353 1 1.7353763066684476e+01 9.2910702560164005e+00 0.0000000000000000e+00 -1 -1 0
32 1 1.6316913244842546e+01 9.2046315962071326e+00 0.0000000000000000e+00 -1 0 0
144 1 1.6764170157333339e+01 1.0189548222698861e+01 0.0000000000000000e+00 -1 0 0
145 1 1.6048781840373636e+01 1.0781872593452299e+01 0.0000000000000000e+00 0 0 0
476 2 1.7229231680512804e+01 1.1148777300206115e+01 0.0000000000000000e+00 -1 1 0
469 1 1.7872466039806319e+01 1.0308816954674086e+01 0.0000000000000000e+00 -1 0 0
255 2 1.8070659897053428e+01 9.5834591092623604e+00 0.0000000000000000e+00 -1 -1 0
52 1 1.8762476524929788e+01 9.9456137415501384e+00 0.0000000000000000e+00 -1 0 0
8 1 1.9551571082591657e+01 9.0539498563934178e+00 0.0000000000000000e+00 -1 1 0
375 2 1.9535410749721976e+01 1.0132748202195504e+01 0.0000000000000000e+00 -2 0 0
493 1 1.9287545114058105e+01 1.0858307214045064e+01 0.0000000000000000e+00 0 -1 0
452 1 1.8314612026435100e+01 1.1156715827734402e+01 0.0000000000000000e+00 -1 0 0
80 2 1.9600588300369315e+00 1.1325776826893243e+01 0.0000000000000000e+00 0 0 0
352 1 4.4289933435033735e-01 1.2182533876465834e+01 0.0000000000000000e+00 0 0 0
301 1 1.6256949331703761e+00 1.2034439372622341e+01 0.0000000000000000e+00 -1 -1 0
313 1 2.3657565221053911e+00 1.2826226891062257e+01 0.0000000000000000e+00 1 0 0
20 2 1.2167375194260608e+00 1.2799449399715108e+01 0.0000000000000000e+00 0 0 0
489 1 5.2335537565470391e-01 1.3234726395820884e+01 0.0000000000000000e+00 1 0 0
227 1 2.6216627706332583e+00 1.1953258103958262e+01 0.0000000000000000e+00 0 -1 0
376 2 3.4751509516648418e+00 1.1598144144668687e+01 0.0000000000000000e+00 0 0 0
119 2 3.2588777987325872e+00 1.2518807214566460e+01 0.0000000000000000e+00 0 0 0
276 2 2.7130926870748335e+00 1.3566825385977335e+01 0.0000000000000000e+00 2 -1 0
369 1 4.0297156398108545e+00 1.2239575359612454e+01 0.0000000000000000e+00 1 -1 0
286 1 3.7490104750846154e+00 1.3300652378836304e+01 0.0000000000000000e+00 0 -1 0
380 2 4.5219875203096995e+00 1.2995016675345999e+01 0.0000000000000000e+00 1 0 0
310 1 4.6189071114137690e+00 1.1405346519191927e+01 0.0000000000000000e+00 0 0 0
60 2 5.0205833462345382e+00 1.2245783085573770e+01 0.0000000000000000e+00 0 0 0
121 1 5.2741733998632592e+00 1.3173868630921540e+01 0.0000000000000000e+00 0 0 0
238 2 5.8986291469536631e+00 1.2608893633352459e+01 0.0000000000000000e+00 0 0 0
381 1 5.6552215253279812e+00 1.1793388383250090e+01 0.0000000000000000e+00 0 1 0
51 1 6.5889910808017333e+00 1.3109107775745274e+01 0.0000000000000000e+00 0 0 0
72 1 6.6436378024343608e+00 1.1986686015265393e+01 0.0000000000000000e+00 -1 0 0
110 1 7.4747159370157670e+00 1.2462172820273546e+01 0.0000000000000000e+00 -1 0 0
390 1 8.3545470028738062e+00 1.1854795512361605e+01 0.0000000000000000e+00 0 1 0
395 2 8.2285136286582699e+00 1.2796841128110662e+01 0.0000000000000000e+00 1 -1 0
264 1 7.6972855974754530e+00 1.3464409836024698e+01 0.0000000000000000e+00 0 -1 0
488 1 9.0813925343046176e+00 1.2471339161246162e+01 0.0000000000000000e+00 0 0 0
43 1 8.8020043817375271e+00 1.3482567867544773e+01 0.0000000000000000e+00 0 -1 0
209 1 9.0441288186533004e+00 1.1234945272025064e+01 0.0000000000000000e+00 0 0 0
12 1 1.0600947478578643e+01 1.1579022154637142e+01 0.0000000000000000e+00 -1 -1 0
240 2 9.6817453560932414e+00 1.1748183859028728e+01 0.0000000000000000e+00 0 1 0
449 1 1.0096783730123475e+01 1.2613000293257574e+01 0.0000000000000000e+00 0 1 0
420 2 1.0899943973495079e+01 1.2537052683249465e+01 0.0000000000000000e+00 0 0 0
334 2 9.5611560995970368e+00 1.3249007914818357e+01 0.0000000000000000e+00 -1 1 0
453 1 1.1634414362047925e+01 1.1130854019176899e+01 0.0000000000000000e+00 0 0 0
423 1 1.1632806911391519e+01 1.2217083332755566e+01 0.0000000000000000e+00 0 0 0
234 2 1.2456015141977467e+01 1.1608910390468115e+01 0.0000000000000000e+00 0 0 0
210 1 1.2606665107156061e+01 1.2458602103770394e+01 0.0000000000000000e+00 -1 1 0
424 1 1.1546611608201472e+01 1.3233508833532909e+01 0.0000000000000000e+00 0 1 0
397 2 1.2359989665041287e+01 1.3236474078687611e+01 0.0000000000000000e+00 0 0 0
414 2 1.3494881615490364e+01 1.2676540831148532e+01 0.0000000000000000e+00 0 0 0
471 1 1.3182770313623466e+01 1.3497963028348170e+01 0.0000000000000000e+00 0 -1 0
111 1 1.5710022462728789e+01 1.1670093255895072e+01 0.0000000000000000e+00 -1 1 0
152 1 1.3519432019443261e+01 1.1713480184901144e+01 0.0000000000000000e+00 0 -1 0
277 2 1.4269671621149749e+01 1.2346227294589609e+01 0.0000000000000000e+00 0 0 0
272 1 1.4692090514259805e+01 1.1521514512974459e+01 0.0000000000000000e+00 -1 -1 0
373 1 1.5104820741352704e+01 1.2453811423904520e+01 0.0000000000000000e+00 1 -1 0
366 1 1.4113785062949415e+01 1.3206994251923902e+01 0.0000000000000000e+00 0 0 0
314 2 1.4939667037609814e+01 1.3313166189055300e+01 0.0000000000000000e+00 0 0 0
273 1 1.6609268482130062e+01 1.1657577947137524e+01 0.0000000000000000e+00 0 0 0
470 1 1.5767774624503634e+01 1.3246315256017818e+01 0.0000000000000000e+00 0 -1 0
320 2 1.5992822684174930e+01 1.2490881634844701e+01 0.0000000000000000e+00 -1 -1 0
304 1 1.7626971811394025e+01 1.1951575036051345e+01 0.0000000000000000e+00 0 0 0
228 1 1.6948362775144343e+01 1.2745967359363043e+01 0.0000000000000000e+00 0 0 0
161 1 1.8015426881074657e+01 1.2935282798892326e+01 0.0000000000000000e+00 -1 0 0
146 1 1.6643322600865126e+01 1.3724901678642114e+01 0.0000000000000000e+00 0 0 0
440 2 1.8365906145706180e+01 1.2167331547880307e+01 0.0000000000000000e+00 0 -1 0
400 2 2.0226556907926859e+01 1.1374215703100841e+01 0.0000000000000000e+00 -1 0 0
294 2 1.9052047047094590e+01 1.2640695980837847e+01 0.0000000000000000e+00 0 1 0
421 1 1.9670503576012479e+01 1.3149625607723699e+01 0.0000000000000000e+00 -1 -1 0
293 1 1.9452143813621003e+01 1.1912542353969521e+01 0.0000000000000000e+00 -1 0 0
196 2 2.0032435176243112e+01 1.2473501257721862e+01 0.0000000000000000e+00 0 -1 0
223 1 1.6294567842287133e+00 1.3468090467204398e+01 0.0000000000000000e+00 0 0 0
299 2 5.1543565511052181e-01 1.4097267614767603e+01 0.0000000000000000e+00 1 0 0
198 2 1.4413774577205387e+00 1.4306720053736214e+01 0.0000000000000000e+00 1 0 0
62 1 2.2682537335480384e+00 1.4416940610251967e+01 0.0000000000000000e+00 0 -1 0
69 1 7.7409530846042718e-01 1.4917226781689559e+01 0.0000000000000000e+00 2 0 0
95 2 2.0399907855254412e+01 1.4834598825785676e+01 0.0000000000000000e+00 -1 1 0
412 1 1.7664672720990438e+00 1.5349817895057546e+01 0.0000000000000000e+00 0 0 0
128 1 2.8603727891783839e+00 1.5299737637268013e+01 0.0000000000000000e+00 0 0 0
153 1 3.4021898607700978e+00 1.4442551545493036e+01 0.0000000000000000e+00 0 0 0
120 2 4.2280742537766729e+00 1.4871403709033801e+01 0.0000000000000000e+00 1 -1 0
29 1 4.4136218937663658e+00 1.4057620890868733e+01 0.0000000000000000e+00 0 -1 0
388 1 3.7712496923191363e+00 1.5605405725142933e+01 0.0000000000000000e+00 0 0 0
280 2 5.2359364996535973e+00 1.4025049750790840e+01 0.0000000000000000e+00 0 0 0
202 1 4.9827927985362965e+00 1.4788476447487851e+01 0.0000000000000000e+00 1 -1 0
108 1 6.0028615520275475e+00 1.3801114895992306e+01 0.0000000000000000e+00 1 0 0
336 2 6.0804796322513246e+00 1.4777207188085329e+01 0.0000000000000000e+00 0 0 0
318 2 7.1316728701496617e+00 1.5055411588429596e+01 0.0000000000000000e+00 0 -1 0
143 1 6.7236142191380690e+00 1.5982333063002168e+01 0.0000000000000000e+00 1 -1 0
411 1 5.6849776961844096e+00 1.5567419042897775e+01 0.0000000000000000e+00 0 0 0
178 2 6.8473828987779370e+00 1.3869642733461735e+01 0.0000000000000000e+00 1 0 0
94 2 7.8070677003960984e+00 1.4394463557552994e+01 0.0000000000000000e+00 0 -1 0
486 1 7.8931217507731875e+00 1.5240235707882821e+01 0.0000000000000000e+00 0 0 0
311 1 8.7060098951250300e+00 1.4533415136090403e+01 0.0000000000000000e+00 -1 0 0
243 1 8.7471453005587865e+00 1.5745666838387232e+01 0.0000000000000000e+00 0 -1 0
355 2 9.3370043277320001e+00 1.5160957479116496e+01 0.0000000000000000e+00 0 0 0
302 1 1.0454951315151725e+01 1.4589456505417393e+01 0.0000000000000000e+00 0 0 0
323 1 9.5893988712524028e+00 1.4114898787251803e+01 0.0000000000000000e+00 0 -1 0