LAMMPS (7 Aug 2019)
  using 1 OpenMP thread(s) per MPI task
#Binary Glass from Melt-Quench method (Looped Cooling)

#------------------------System Initialization---------------------------------#
units           lj
dimension      	2
processors      * * *
boundary        p p p
atom_style	atomic

variable 	T_start equal 2.0	#Temperature Variables
variable	T_stop equal 0.05
variable	T_step equal 0.05
variable	N_loop equal 39		#Equals (2.0-0.05)/0.05=39
variable	cool_run equal 5000000	#5000000 steps for 0.05 T_step corresponds to 3.33e-6 cooling_rate
variable	dt equal 0.003

#--------------------------Read data-------------------------------------------#

read_restart    liq2.rest
WARNING: Restart file used different # of processors (../read_restart.cpp:738)
  restoring atom style atomic from restart
  orthogonal box = (0 0 -5) to (20.4124 20.4124 5)
  4 by 2 by 1 MPI processor grid
  restoring pair style lj/cut from restart
  500 atoms
  read_restart CPU = 0.00546002 secs
change_box	all triclinic
  triclinic box = (0 0 -5) to (20.4124 20.4124 5) with tilt (0 0 0)
reset_timestep  0

#--------------------------Potential-------------------------------------------#
include		pot.mod
#LJ Potential for binary glass
pair_style	lj/cut 2.5
pair_coeff	1 1 1.0 1.0 2.5		#e_AA=1.0 , sigma_AA=1.0, rc_AA=2.5*e_AA=2.5
pair_coeff	1 2 1.5 0.8 2.0		#e_AB=1.5 , sigma_AB=0.8, rc_AB=2.5*e_AB=2.0
pair_coeff	2 2 0.5 0.88 2.2	#e_AB=0.5 , sigma_BB=0.88, rc_BB=2.5*e_BB=2.2

neighbor        2.0 bin
neigh_modify    every 1 check yes





timestep        ${dt}			#dt
timestep        0.003			
thermo		1000

#---------------------------Initialization-------------------------------------#
velocity        all create 2.0 4631 dist gaussian

# Save MD configuration
write_restart	temp.rest
Neighbor list info ...
  update every 1 steps, delay 10 steps, check yes
  max neighbors/atom: 2000, page size: 100000
  master list distance cutoff = 4.5
  ghost atom cutoff = 4.5
  binsize = 2.25, bins = 10 10 5
  1 neighbor lists, perpetual/occasional/extra = 1 0 0
  (1) pair lj/cut, perpetual
      attributes: half, newton on
      pair build: half/bin/newton/tri
      stencil: half/bin/2d/newton/tri
      bin: standard
write_data	temp.*.dat


# find energy minimum
variable	c equal pe
variable        f equal vol
variable        g equal density
variable        h equal temp
variable        j equal press
variable	b equal 2
variable	c_rate equal ${T_step}/(${cool_run}*${dt})
variable	c_rate equal 0.05/(${cool_run}*${dt})
variable	c_rate equal 0.05/(5000000*${dt})
variable	c_rate equal 0.05/(5000000*0.003)

# Compute initial state

fix           3 all npt temp 0.01 0.001 0.15 tri 0.0 0.0 1.5
run           100
Per MPI rank memory allocation (min/avg/max) = 2.816 | 2.816 | 2.816 Mbytes
Step Temp E_pair E_mol TotEng Press Volume 
       0            2   -1.9203625            0  0.075637485    23.631176    416.66667 
     100  0.030764143   -3.5218662            0   -3.4911636 -0.030138267    455.04152 
Loop time of 0.00530961 on 8 procs for 100 steps with 500 atoms

Performance: 4881713.043 tau/day, 18833.769 timesteps/s
94.5% CPU use with 8 MPI tasks x 1 OpenMP threads

MPI task timing breakdown:
Section |  min time  |  avg time  |  max time  |%varavg| %total
---------------------------------------------------------------
Pair    | 0.0015287  | 0.0016269  | 0.0017788  |   0.2 | 30.64
Neigh   | 0.00013089 | 0.00013801 | 0.000144   |   0.0 |  2.60
Comm    | 0.0010655  | 0.0012656  | 0.0014727  |   0.4 | 23.84
Output  | 1.7881e-05 | 1.8746e-05 | 2.4796e-05 |   0.0 |  0.35
Modify  | 0.001915   | 0.0020221  | 0.0021524  |   0.2 | 38.08
Other   |            | 0.0002382  |            |       |  4.49

Nlocal:    62.5 ave 67 max 59 min
Histogram: 1 1 2 1 0 0 0 2 0 1
Nghost:    242.75 ave 247 max 239 min
Histogram: 1 0 2 2 0 0 1 0 1 1
Neighs:    1862 ave 2015 max 1729 min
Histogram: 1 1 1 1 1 0 0 2 0 1

Total # of neighbors = 14896
Ave neighs/atom = 29.792
Neighbor list builds = 2
Dangerous builds = 1
unfix         3

#Minimization
fix           4 all box/relax tri 0.0
min_style     cg
min_modify    line quadratic
minimize      1.0e-10 1.0e-10 10000 100000
WARNING: Using 'neigh_modify every 1 delay 0 check yes' setting during minimization (../min.cpp:168)
Per MPI rank memory allocation (min/avg/max) = 3.925 | 3.925 | 3.925 Mbytes
Step Temp E_pair E_mol TotEng Press Volume 
     100  0.030764143   -3.5218662            0   -3.4911636 -0.030138267    455.04152 
     271  0.030764143    -3.603071            0   -3.5723684   0.03913166    449.27244 
Loop time of 0.0157934 on 8 procs for 171 steps with 500 atoms

92.7% CPU use with 8 MPI tasks x 1 OpenMP threads

Minimization stats:
  Stopping criterion = linesearch alpha is zero
  Energy initial, next-to-last, final = 
        -3.52186624705      -3.6030710385      -3.6030710385
  Force two-norm initial, final = 101.411 46.949
  Force max component initial, final = 31.5611 6.01811
  Final line search alpha, max atom move = 2.7141e-09 1.63338e-08
  Iterations, force evaluations = 171 245

MPI task timing breakdown:
Section |  min time  |  avg time  |  max time  |%varavg| %total
---------------------------------------------------------------
Pair    | 0.0055029  | 0.005885   | 0.0064516  |   0.4 | 37.26
Neigh   | 0          | 0          | 0          |   0.0 |  0.00
Comm    | 0.0029197  | 0.0033143  | 0.0037892  |   0.5 | 20.99
Output  | 0          | 0          | 0          |   0.0 |  0.00
Modify  | 0          | 0          | 0          |   0.0 |  0.00
Other   |            | 0.006594   |            |       | 41.75

Nlocal:    62.5 ave 67 max 59 min
Histogram: 1 1 2 1 0 0 0 2 0 1
Nghost:    245.5 ave 252 max 242 min
Histogram: 1 1 1 1 3 0 0 0 0 1
Neighs:    1908 ave 2068 max 1772 min
Histogram: 1 1 1 1 0 1 0 2 0 1

Total # of neighbors = 15264
Ave neighs/atom = 30.528
Neighbor list builds = 0
Dangerous builds = 0
unfix         4

print         '$b $h $c $f $g $j ${c_rate}' file out_AB_cooling.dat
2 0.0307641433314658 -3.60307103850465 449.272441042739 1.11291046216751 0.0391316603470763 3.33333333333333e-06

#-----------------------------------Loop---------------------------------------#
# reload MD
clear
  using 1 OpenMP thread(s) per MPI task
read_restart    temp.rest
  restoring atom style atomic from restart
  triclinic box = (0 0 -5) to (20.4124 20.4124 5) with tilt (0 0 0)
  4 by 2 by 1 MPI processor grid
  restoring pair style lj/cut from restart
  500 atoms
  read_restart CPU = 0.00087595 secs
include		pot.mod
#LJ Potential for binary glass
pair_style	lj/cut 2.5
pair_coeff	1 1 1.0 1.0 2.5		#e_AA=1.0 , sigma_AA=1.0, rc_AA=2.5*e_AA=2.5
pair_coeff	1 2 1.5 0.8 2.0		#e_AB=1.5 , sigma_AB=0.8, rc_AB=2.5*e_AB=2.0
pair_coeff	2 2 0.5 0.88 2.2	#e_AB=0.5 , sigma_BB=0.88, rc_BB=2.5*e_BB=2.2

neighbor        2.0 bin
neigh_modify    every 1 check yes






#Cooling loop @{c_rate}
variable        d loop ${N_loop}
variable        d loop 39
label           lcycle
  variable	a equal (2.0-(($d-1)*${T_step}))
  variable	a equal (2.0-((1-1)*${T_step}))
  variable	a equal (2.0-((1-1)*0.05))
  variable	b equal (2.0-(($d)*${T_step}))
  variable	b equal (2.0-((1)*${T_step}))
  variable	b equal (2.0-((1)*0.05))
  variable	t_step equal ($d-1)*${cool_run}
  variable	t_step equal (1-1)*${cool_run}
  variable	t_step equal (1-1)*5000000
  reset_timestep	${t_step}
  reset_timestep	0
  print		"Loop number = $d; Temperature = $a K to $b K"
Loop number = 1; Temperature = 2 K to 1.95 K

  compute	  peratom_pe all pe/atom
  dump            mydump all custom 5000000 md.*.lammpstrj id type x y z c_peratom_pe vx vy vz

  fix		1 all nvt temp $a $b 0.15 #iso 0.0 0.0 1.5
  fix		1 all nvt temp 2 $b 0.15 
  fix		1 all nvt temp 2 1.95 0.15 
  run		${cool_run}
  run		5000000
Neighbor list info ...
  update every 1 steps, delay 10 steps, check yes
  max neighbors/atom: 2000, page size: 100000
  master list distance cutoff = 4.5
  ghost atom cutoff = 4.5
  binsize = 2.25, bins = 10 10 5
  1 neighbor lists, perpetual/occasional/extra = 1 0 0
  (1) pair lj/cut, perpetual
      attributes: half, newton on
      pair build: half/bin/newton/tri
      stencil: half/bin/2d/newton/tri
      bin: standard
Per MPI rank memory allocation (min/avg/max) = 4.18 | 4.18 | 4.18 Mbytes
Step Temp E_pair E_mol TotEng Press 
       0     2.002006   -1.9203625            0  0.075637485    23.631176 
 5000000    1.8988526   -1.9821816            0 -0.089025628    23.054072 
Loop time of 179.752 on 8 procs for 5000000 steps with 500 atoms

Performance: 7209931.951 tau/day, 27816.095 timesteps/s
97.3% CPU use with 8 MPI tasks x 1 OpenMP threads

MPI task timing breakdown:
Section |  min time  |  avg time  |  max time  |%varavg| %total
---------------------------------------------------------------
Pair    | 90.189     | 91.249     | 92.336     |   7.9 | 50.76
Neigh   | 1.8651     | 1.9872     | 2.0309     |   3.5 |  1.11
Comm    | 51.196     | 52.34      | 53.563     |  12.6 | 29.12
Output  | 0.0072792  | 0.0072872  | 0.007297   |   0.0 |  0.00
Modify  | 20.534     | 21.004     | 21.408     |   5.9 | 11.69
Other   |            | 13.16      |            |       |  7.32

Nlocal:    62.5 ave 65 max 60 min
Histogram: 1 0 2 0 1 0 1 0 2 1
Nghost:    262.125 ave 267 max 257 min
Histogram: 1 0 0 3 0 0 1 0 2 1
Neighs:    2088.75 ave 2172 max 1965 min
Histogram: 1 0 1 0 1 1 1 0 1 2

Total # of neighbors = 16710
Ave neighs/atom = 33.42
Neighbor list builds = 24355
Dangerous builds = 0
  unfix		1
  undump 	 mydump
  # save MD configuration
  write_restart	temp.rest
  write_data	temp.*.dat


  #find energy minimum
  variable	c equal pe
  variable	f equal vol
  variable	g equal density
  variable      h equal temp
  variable      j equal press
  variable	c_rate equal ${T_step}/(${cool_run}*${dt})
  variable	c_rate equal 0.05/(${cool_run}*${dt})
  variable	c_rate equal 0.05/(5000000*${dt})
  variable	c_rate equal 0.05/(5000000*0.003)
# Compute State

  dump          mydump1 all custom 5000 md_state.*.lammpstrj id type x y z c_peratom_pe vx vy vz
  fix      	3 all npt temp 0.01 0.001 0.15 tri 0.0 0.0 1.5
  run           10000						#Try different values
Per MPI rank memory allocation (min/avg/max) = 4.569 | 4.569 | 4.569 Mbytes
Step Temp E_pair E_mol TotEng Press Volume 
 5000000    1.8988526   -1.9821816            0 -0.089025628    23.054072    416.66667 
 5010000 0.0009168091   -3.8395507            0   -3.8386367 -0.00052123965    436.92915 
Loop time of 0.446309 on 8 procs for 10000 steps with 500 atoms

Performance: 5807633.187 tau/day, 22405.992 timesteps/s
99.5% CPU use with 8 MPI tasks x 1 OpenMP threads

MPI task timing breakdown:
Section |  min time  |  avg time  |  max time  |%varavg| %total
---------------------------------------------------------------
Pair    | 0.1658     | 0.17344    | 0.18292    |   1.5 | 38.86
Neigh   | 0.00044084 | 0.00046748 | 0.00048733 |   0.0 |  0.10
Comm    | 0.08434    | 0.09407    | 0.1025     |   2.0 | 21.08
Output  | 0.0030141  | 0.0035259  | 0.0038571  |   0.5 |  0.79
Modify  | 0.14388    | 0.14666    | 0.14981    |   0.6 | 32.86
Other   |            | 0.02814    |            |       |  6.31

Nlocal:    62.5 ave 66 max 58 min
Histogram: 1 0 1 2 0 0 0 1 2 1
Nghost:    252.875 ave 259 max 247 min
Histogram: 1 0 1 1 1 2 0 1 0 1
Neighs:    1985.25 ave 2118 max 1845 min
Histogram: 2 0 0 0 2 0 1 1 1 1

Total # of neighbors = 15882
Ave neighs/atom = 31.764
Neighbor list builds = 6
Dangerous builds = 1
  unfix         3
  undump	mydump1

  dump          mydump2 all custom 50000 md_min.*.lammpstrj id type x y z c_peratom_pe vx vy vz
  fix           4 all box/relax tri 0.0
  min_style	cg
  min_modify	line quadratic
  minimize	1.0e-10 1.0e-10 100000 100000
WARNING: Using 'neigh_modify every 1 delay 0 check yes' setting during minimization (../min.cpp:168)
Per MPI rank memory allocation (min/avg/max) = 4.424 | 4.424 | 4.424 Mbytes
Step Temp E_pair E_mol TotEng Press Volume 
 5010000 0.0009168091   -3.8395507            0   -3.8386367 -0.00052123965    436.92915 
 5010024 0.0009168091   -3.8399173            0   -3.8390033 0.0063322661    436.87852 
Loop time of 0.0058403 on 8 procs for 24 steps with 500 atoms

69.2% CPU use with 8 MPI tasks x 1 OpenMP threads

Minimization stats:
  Stopping criterion = linesearch alpha is zero
  Energy initial, next-to-last, final = 
        -3.83955073437     -3.83991733175     -3.83991733175
  Force two-norm initial, final = 14.1305 8.38326
  Force max component initial, final = 3.3541 2.3227
  Final line search alpha, max atom move = 8.40887e-08 1.95313e-07
  Iterations, force evaluations = 24 45

MPI task timing breakdown:
Section |  min time  |  avg time  |  max time  |%varavg| %total
---------------------------------------------------------------
Pair    | 0.0010695  | 0.0011983  | 0.0013089  |   0.2 | 20.52
Neigh   | 0          | 0          | 0          |   0.0 |  0.00
Comm    | 0.00042176 | 0.00051054 | 0.00061774 |   0.0 |  8.74
Output  | 0          | 0          | 0          |   0.0 |  0.00
Modify  | 0          | 0          | 0          |   0.0 |  0.00
Other   |            | 0.004131   |            |       | 70.74

Nlocal:    62.5 ave 66 max 57 min
Histogram: 1 0 0 1 2 0 0 0 3 1
Nghost:    252.125 ave 259 max 246 min
Histogram: 1 0 2 0 1 1 2 0 0 1
Neighs:    1986.88 ave 2116 max 1814 min
Histogram: 1 1 0 0 1 1 0 1 2 1

Total # of neighbors = 15895
Ave neighs/atom = 31.79
Neighbor list builds = 0
Dangerous builds = 0
  unfix         4
  undump	mydump2

  print		'$b $h $c $f $g $j ${c_rate}' append out_AB_cooling.dat
1.95 0.000916809095706915 -3.83991733175484 436.87852210571 1.14448290474444 0.00633226610264824 3.33333333333333e-06

 # reload MD
  clear
  using 1 OpenMP thread(s) per MPI task
  read_restart    temp.rest
  restoring atom style atomic from restart
  triclinic box = (0 0 -5) to (20.4124 20.4124 5) with tilt (0 0 0)
  4 by 2 by 1 MPI processor grid
  restoring pair style lj/cut from restart
  500 atoms
  read_restart CPU = 0.00776196 secs
  include         pot.mod
#LJ Potential for binary glass
pair_style	lj/cut 2.5
pair_coeff	1 1 1.0 1.0 2.5		#e_AA=1.0 , sigma_AA=1.0, rc_AA=2.5*e_AA=2.5
pair_coeff	1 2 1.5 0.8 2.0		#e_AB=1.5 , sigma_AB=0.8, rc_AB=2.5*e_AB=2.0
pair_coeff	2 2 0.5 0.88 2.2	#e_AB=0.5 , sigma_BB=0.88, rc_BB=2.5*e_BB=2.2

neighbor        2.0 bin
neigh_modify    every 1 check yes






next            d
jump            in.binary_loop lcycle
  variable	a equal (2.0-(($d-1)*${T_step}))
  variable	a equal (2.0-((2-1)*${T_step}))
  variable	a equal (2.0-((2-1)*0.05))
  variable	b equal (2.0-(($d)*${T_step}))
  variable	b equal (2.0-((2)*${T_step}))
  variable	b equal (2.0-((2)*0.05))
  variable	t_step equal ($d-1)*${cool_run}
  variable	t_step equal (2-1)*${cool_run}
  variable	t_step equal (2-1)*5000000
  reset_timestep	${t_step}
  reset_timestep	5000000
  print		"Loop number = $d; Temperature = $a K to $b K"
Loop number = 2; Temperature = 1.95 K to 1.9 K

  compute	  peratom_pe all pe/atom
  dump            mydump all custom 5000000 md.*.lammpstrj id type x y z c_peratom_pe vx vy vz

  fix		1 all nvt temp $a $b 0.15 #iso 0.0 0.0 1.5
  fix		1 all nvt temp 1.95 $b 0.15 
  fix		1 all nvt temp 1.95 1.9 0.15 
  run		${cool_run}
  run		5000000
Neighbor list info ...
  update every 1 steps, delay 10 steps, check yes
  max neighbors/atom: 2000, page size: 100000
  master list distance cutoff = 4.5
  ghost atom cutoff = 4.5
  binsize = 2.25, bins = 10 10 5
  1 neighbor lists, perpetual/occasional/extra = 1 0 0
  (1) pair lj/cut, perpetual
      attributes: half, newton on
      pair build: half/bin/newton/tri
      stencil: half/bin/2d/newton/tri
      bin: standard
Per MPI rank memory allocation (min/avg/max) = 4.18 | 4.18 | 4.18 Mbytes
Step Temp E_pair E_mol TotEng Press 
 5000000    1.8988526   -1.9821816            0 -0.089025628    23.054072 
10000000    1.8629226   -2.0263194            0   -0.1689856     22.83151 
Loop time of 180.459 on 8 procs for 5000000 steps with 500 atoms

Performance: 7181681.917 tau/day, 27707.106 timesteps/s
97.1% CPU use with 8 MPI tasks x 1 OpenMP threads

MPI task timing breakdown:
Section |  min time  |  avg time  |  max time  |%varavg| %total
---------------------------------------------------------------
Pair    | 90.371     | 91.036     | 91.758     |   4.6 | 50.45
Neigh   | 1.9002     | 2.0183     | 2.0591     |   3.4 |  1.12
Comm    | 51.862     | 52.646     | 53.556     |   7.5 | 29.17
Output  | 0.0070639  | 0.0070757  | 0.0071361  |   0.0 |  0.00
Modify  | 21.361     | 21.615     | 21.899     |   4.5 | 11.98
Other   |            | 13.14      |            |       |  7.28

Nlocal:    62.5 ave 68 max 60 min
Histogram: 3 1 1 0 0 1 1 0 0 1
Nghost:    262 ave 268 max 257 min
Histogram: 2 0 1 1 0 1 1 1 0 1
Neighs:    2093.25 ave 2274 max 2012 min
Histogram: 3 2 0 0 1 1 0 0 0 1

Total # of neighbors = 16746
Ave neighs/atom = 33.492
Neighbor list builds = 23669
Dangerous builds = 0
  unfix		1
  undump 	 mydump
  # save MD configuration
  write_restart	temp.rest
  write_data	temp.*.dat


  #find energy minimum
  variable	c equal pe
  variable	f equal vol
  variable	g equal density
  variable      h equal temp
  variable      j equal press
  variable	c_rate equal ${T_step}/(${cool_run}*${dt})
  variable	c_rate equal 0.05/(${cool_run}*${dt})
  variable	c_rate equal 0.05/(5000000*${dt})
  variable	c_rate equal 0.05/(5000000*0.003)
# Compute State

  dump          mydump1 all custom 5000 md_state.*.lammpstrj id type x y z c_peratom_pe vx vy vz
  fix      	3 all npt temp 0.01 0.001 0.15 tri 0.0 0.0 1.5
  run           10000						#Try different values
Per MPI rank memory allocation (min/avg/max) = 4.569 | 4.569 | 4.569 Mbytes
Step Temp E_pair E_mol TotEng Press Volume 
10000000    1.8629226   -2.0263194            0   -0.1689856     22.83151    416.66667 
10010000 0.0010344584   -3.8384818            0   -3.8374505 -0.0031756536    436.11246 
Loop time of 0.447051 on 8 procs for 10000 steps with 500 atoms

Performance: 5797989.778 tau/day, 22368.788 timesteps/s
99.7% CPU use with 8 MPI tasks x 1 OpenMP threads

MPI task timing breakdown:
Section |  min time  |  avg time  |  max time  |%varavg| %total
---------------------------------------------------------------
Pair    | 0.15617    | 0.17321    | 0.18522    |   1.9 | 38.74
Neigh   | 0.00035715 | 0.0003815  | 0.00041223 |   0.0 |  0.09
Comm    | 0.084124   | 0.094907   | 0.10855    |   2.2 | 21.23
Output  | 0.0027881  | 0.0031846  | 0.0035231  |   0.4 |  0.71
Modify  | 0.14279    | 0.1463     | 0.15037    |   0.7 | 32.73
Other   |            | 0.02907    |            |       |  6.50

Nlocal:    62.5 ave 66 max 59 min
Histogram: 1 1 0 0 2 1 0 2 0 1
Nghost:    253.125 ave 257 max 250 min
Histogram: 2 0 2 0 1 1 0 0 0 2
Neighs:    1980.12 ave 2102 max 1820 min
Histogram: 1 0 0 0 1 3 1 0 1 1

Total # of neighbors = 15841
Ave neighs/atom = 31.682
Neighbor list builds = 5
Dangerous builds = 1
  unfix         3
  undump	mydump1

  dump          mydump2 all custom 50000 md_min.*.lammpstrj id type x y z c_peratom_pe vx vy vz
  fix           4 all box/relax tri 0.0
  min_style	cg
  min_modify	line quadratic
  minimize	1.0e-10 1.0e-10 100000 100000
WARNING: Using 'neigh_modify every 1 delay 0 check yes' setting during minimization (../min.cpp:168)
Per MPI rank memory allocation (min/avg/max) = 4.424 | 4.424 | 4.424 Mbytes
Step Temp E_pair E_mol TotEng Press Volume 
10010000 0.0010344584   -3.8384818            0   -3.8374505 -0.0031756536    436.11246 
10010007 0.0010344584   -3.8385927            0   -3.8375613 0.0019708217    436.08194 
Loop time of 0.00596204 on 8 procs for 7 steps with 500 atoms

75.6% CPU use with 8 MPI tasks x 1 OpenMP threads

Minimization stats:
  Stopping criterion = linesearch alpha is zero
  Energy initial, next-to-last, final = 
        -3.83848182566     -3.83859265274     -3.83859265274
  Force two-norm initial, final = 13.7901 12.6324
  Force max component initial, final = 4.16553 1.8751
  Final line search alpha, max atom move = 2.60403e-08 4.88281e-08
  Iterations, force evaluations = 7 43

MPI task timing breakdown:
Section |  min time  |  avg time  |  max time  |%varavg| %total
---------------------------------------------------------------
Pair    | 0.0010762  | 0.00114    | 0.0011969  |   0.1 | 19.12
Neigh   | 0          | 0          | 0          |   0.0 |  0.00
Comm    | 0.0003798  | 0.00044012 | 0.00049925 |   0.0 |  7.38
Output  | 0          | 0          | 0          |   0.0 |  0.00
Modify  | 0          | 0          | 0          |   0.0 |  0.00
Other   |            | 0.004382   |            |       | 73.50

Nlocal:    62.5 ave 67 max 59 min
Histogram: 1 0 3 1 0 0 1 1 0 1
Nghost:    254.375 ave 259 max 248 min
Histogram: 1 0 0 0 2 1 2 0 0 2
Neighs:    1995.25 ave 2164 max 1846 min
Histogram: 1 0 2 0 1 2 1 0 0 1

Total # of neighbors = 15962
Ave neighs/atom = 31.924
Neighbor list builds = 0
Dangerous builds = 0
  unfix         4
  undump	mydump2

  print		'$b $h $c $f $g $j ${c_rate}' append out_AB_cooling.dat
1.9 0.00103445842668417 -3.83859265273673 436.081943182427 1.14657350027179 0.00197082170162919 3.33333333333333e-06

 # reload MD
  clear
  using 1 OpenMP thread(s) per MPI task
  read_restart    temp.rest
  restoring atom style atomic from restart
  triclinic box = (0 0 -5) to (20.4124 20.4124 5) with tilt (0 0 0)
  4 by 2 by 1 MPI processor grid
  restoring pair style lj/cut from restart
  500 atoms
  read_restart CPU = 0.00644088 secs
  include         pot.mod
#LJ Potential for binary glass
pair_style	lj/cut 2.5
pair_coeff	1 1 1.0 1.0 2.5		#e_AA=1.0 , sigma_AA=1.0, rc_AA=2.5*e_AA=2.5
pair_coeff	1 2 1.5 0.8 2.0		#e_AB=1.5 , sigma_AB=0.8, rc_AB=2.5*e_AB=2.0
pair_coeff	2 2 0.5 0.88 2.2	#e_AB=0.5 , sigma_BB=0.88, rc_BB=2.5*e_BB=2.2

neighbor        2.0 bin
neigh_modify    every 1 check yes






next            d
jump            in.binary_loop lcycle
  variable	a equal (2.0-(($d-1)*${T_step}))
  variable	a equal (2.0-((3-1)*${T_step}))
  variable	a equal (2.0-((3-1)*0.05))
  variable	b equal (2.0-(($d)*${T_step}))
  variable	b equal (2.0-((3)*${T_step}))
  variable	b equal (2.0-((3)*0.05))
  variable	t_step equal ($d-1)*${cool_run}
  variable	t_step equal (3-1)*${cool_run}
  variable	t_step equal (3-1)*5000000
  reset_timestep	${t_step}
  reset_timestep	10000000
  print		"Loop number = $d; Temperature = $a K to $b K"
Loop number = 3; Temperature = 1.9 K to 1.85 K

  compute	  peratom_pe all pe/atom
  dump            mydump all custom 5000000 md.*.lammpstrj id type x y z c_peratom_pe vx vy vz

  fix		1 all nvt temp $a $b 0.15 #iso 0.0 0.0 1.5
  fix		1 all nvt temp 1.9 $b 0.15 
  fix		1 all nvt temp 1.9 1.85 0.15 
  run		${cool_run}
  run		5000000
Neighbor list info ...
  update every 1 steps, delay 10 steps, check yes
  max neighbors/atom: 2000, page size: 100000
  master list distance cutoff = 4.5
  ghost atom cutoff = 4.5
  binsize = 2.25, bins = 10 10 5
  1 neighbor lists, perpetual/occasional/extra = 1 0 0
  (1) pair lj/cut, perpetual
      attributes: half, newton on
      pair build: half/bin/newton/tri
      stencil: half/bin/2d/newton/tri
      bin: standard
Per MPI rank memory allocation (min/avg/max) = 4.18 | 4.18 | 4.18 Mbytes
Step Temp E_pair E_mol TotEng Press 
10000000    1.8629226   -2.0263194            0   -0.1689856     22.83151 
15000000    1.7761521   -2.0346592            0   -0.2638355    22.487188 
Loop time of 174.226 on 8 procs for 5000000 steps with 500 atoms

Performance: 7438600.754 tau/day, 28698.305 timesteps/s
99.2% CPU use with 8 MPI tasks x 1 OpenMP threads

MPI task timing breakdown:
Section |  min time  |  avg time  |  max time  |%varavg| %total
---------------------------------------------------------------
Pair    | 90.082     | 90.709     | 91.436     |   4.8 | 52.06
Neigh   | 1.7034     | 1.8071     | 1.8433     |   3.1 |  1.04
Comm    | 50.099     | 50.708     | 51.31      |   6.4 | 29.10
Output  | 0.0023081  | 0.0023161  | 0.002372   |   0.0 |  0.00
Modify  | 19.169     | 19.406     | 20.007     |   6.1 | 11.14
Other   |            | 11.59      |            |       |  6.65

Nlocal:    62.5 ave 65 max 59 min
Histogram: 1 1 0 1 0 0 2 0 1 2
Nghost:    263.875 ave 268 max 259 min
Histogram: 1 0 1 1 0 2 1 0 0 2
Neighs:    2089.62 ave 2217 max 1914 min
Histogram: 1 1 0 0 1 2 0 0 0 3

Total # of neighbors = 16717
Ave neighs/atom = 33.434
Neighbor list builds = 22919
Dangerous builds = 0
  unfix		1
  undump 	 mydump
  # save MD configuration
  write_restart	temp.rest
  write_data	temp.*.dat


  #find energy minimum
  variable	c equal pe
  variable	f equal vol
  variable	g equal density
  variable      h equal temp
  variable      j equal press
  variable	c_rate equal ${T_step}/(${cool_run}*${dt})
  variable	c_rate equal 0.05/(${cool_run}*${dt})
  variable	c_rate equal 0.05/(5000000*${dt})
  variable	c_rate equal 0.05/(5000000*0.003)
# Compute State

  dump          mydump1 all custom 5000 md_state.*.lammpstrj id type x y z c_peratom_pe vx vy vz
  fix      	3 all npt temp 0.01 0.001 0.15 tri 0.0 0.0 1.5
  run           10000						#Try different values
Per MPI rank memory allocation (min/avg/max) = 4.569 | 4.569 | 4.569 Mbytes
Step Temp E_pair E_mol TotEng Press Volume 
15000000    1.7761521   -2.0346592            0   -0.2638355    22.487188    416.66667 
15010000 0.00097644099   -3.8431269            0   -3.8421534 -0.0028966857     435.4505 
Loop time of 0.449259 on 8 procs for 10000 steps with 500 atoms

Performance: 5769495.685 tau/day, 22258.857 timesteps/s
99.5% CPU use with 8 MPI tasks x 1 OpenMP threads

MPI task timing breakdown:
Section |  min time  |  avg time  |  max time  |%varavg| %total
---------------------------------------------------------------
Pair    | 0.16175    | 0.17211    | 0.18208    |   1.8 | 38.31
Neigh   | 0.00048995 | 0.00054541 | 0.00057864 |   0.0 |  0.12
Comm    | 0.086427   | 0.098399   | 0.10994    |   2.4 | 21.90
Output  | 0.0032592  | 0.0040489  | 0.0045152  |   0.7 |  0.90
Modify  | 0.1426     | 0.14541    | 0.1506     |   0.8 | 32.37
Other   |            | 0.02875    |            |       |  6.40

Nlocal:    62.5 ave 66 max 60 min
Histogram: 2 1 0 2 0 0 1 0 1 1
Nghost:    252.625 ave 255 max 247 min
Histogram: 1 0 0 0 0 1 1 1 2 2
Neighs:    1994.12 ave 2082 max 1889 min
Histogram: 2 0 0 1 1 0 0 1 1 2

Total # of neighbors = 15953
Ave neighs/atom = 31.906
Neighbor list builds = 7
Dangerous builds = 1
  unfix         3
  undump	mydump1

  dump          mydump2 all custom 50000 md_min.*.lammpstrj id type x y z c_peratom_pe vx vy vz
  fix           4 all box/relax tri 0.0
  min_style	cg
  min_modify	line quadratic
  minimize	1.0e-10 1.0e-10 100000 100000
WARNING: Using 'neigh_modify every 1 delay 0 check yes' setting during minimization (../min.cpp:168)
Per MPI rank memory allocation (min/avg/max) = 4.424 | 4.424 | 4.424 Mbytes
Step Temp E_pair E_mol TotEng Press Volume 
15010000 0.00097644099   -3.8431269            0   -3.8421534 -0.0028966857     435.4505 
15010007 0.00097644099   -3.8431898            0   -3.8422163 0.00099279853    435.42688 
Loop time of 0.0038546 on 8 procs for 7 steps with 500 atoms

77.7% CPU use with 8 MPI tasks x 1 OpenMP threads

Minimization stats:
  Stopping criterion = linesearch alpha is zero
  Energy initial, next-to-last, final = 
        -3.84312693417     -3.84318977491     -3.84318977491
  Force two-norm initial, final = 13.0977 10.8345
  Force max component initial, final = 5.62832 1.23896
  Final line search alpha, max atom move = 3.94105e-08 4.88281e-08
  Iterations, force evaluations = 7 41

MPI task timing breakdown:
Section |  min time  |  avg time  |  max time  |%varavg| %total
---------------------------------------------------------------
Pair    | 0.00098705 | 0.001087   | 0.0011404  |   0.2 | 28.20
Neigh   | 0          | 0          | 0          |   0.0 |  0.00
Comm    | 0.0004065  | 0.00045368 | 0.00056958 |   0.0 | 11.77
Output  | 0          | 0          | 0          |   0.0 |  0.00
Modify  | 0          | 0          | 0          |   0.0 |  0.00
Other   |            | 0.002314   |            |       | 60.03

Nlocal:    62.5 ave 65 max 58 min
Histogram: 1 0 1 0 1 0 0 2 0 3
Nghost:    253.625 ave 256 max 249 min
Histogram: 1 0 1 0 0 1 0 1 2 2
Neighs:    1996.5 ave 2079 max 1841 min
Histogram: 1 0 1 1 0 0 0 1 1 3

Total # of neighbors = 15972
Ave neighs/atom = 31.944
Neighbor list builds = 0
Dangerous builds = 0
  unfix         4
  undump	mydump2

  print		'$b $h $c $f $g $j ${c_rate}' append out_AB_cooling.dat
1.85 0.000976440986341235 -3.84318977490529 435.426880787005 1.14829842176092 0.000992798534654889 3.33333333333333e-06

 # reload MD
  clear
  using 1 OpenMP thread(s) per MPI task
  read_restart    temp.rest
  restoring atom style atomic from restart
  triclinic box = (0 0 -5) to (20.4124 20.4124 5) with tilt (0 0 0)
  4 by 2 by 1 MPI processor grid
  restoring pair style lj/cut from restart
  500 atoms
  read_restart CPU = 0.000931978 secs
  include         pot.mod
#LJ Potential for binary glass
pair_style	lj/cut 2.5
pair_coeff	1 1 1.0 1.0 2.5		#e_AA=1.0 , sigma_AA=1.0, rc_AA=2.5*e_AA=2.5
pair_coeff	1 2 1.5 0.8 2.0		#e_AB=1.5 , sigma_AB=0.8, rc_AB=2.5*e_AB=2.0
pair_coeff	2 2 0.5 0.88 2.2	#e_AB=0.5 , sigma_BB=0.88, rc_BB=2.5*e_BB=2.2

neighbor        2.0 bin
neigh_modify    every 1 check yes






next            d
jump            in.binary_loop lcycle
  variable	a equal (2.0-(($d-1)*${T_step}))
  variable	a equal (2.0-((4-1)*${T_step}))
  variable	a equal (2.0-((4-1)*0.05))
  variable	b equal (2.0-(($d)*${T_step}))
  variable	b equal (2.0-((4)*${T_step}))
  variable	b equal (2.0-((4)*0.05))
  variable	t_step equal ($d-1)*${cool_run}
  variable	t_step equal (4-1)*${cool_run}
  variable	t_step equal (4-1)*5000000
  reset_timestep	${t_step}
  reset_timestep	15000000
  print		"Loop number = $d; Temperature = $a K to $b K"
Loop number = 4; Temperature = 1.85 K to 1.8 K

  compute	  peratom_pe all pe/atom
  dump            mydump all custom 5000000 md.*.lammpstrj id type x y z c_peratom_pe vx vy vz

  fix		1 all nvt temp $a $b 0.15 #iso 0.0 0.0 1.5
  fix		1 all nvt temp 1.85 $b 0.15 
  fix		1 all nvt temp 1.85 1.8 0.15 
  run		${cool_run}
  run		5000000
Neighbor list info ...
  update every 1 steps, delay 10 steps, check yes
  max neighbors/atom: 2000, page size: 100000
  master list distance cutoff = 4.5
  ghost atom cutoff = 4.5
  binsize = 2.25, bins = 10 10 5
  1 neighbor lists, perpetual/occasional/extra = 1 0 0
  (1) pair lj/cut, perpetual
      attributes: half, newton on
      pair build: half/bin/newton/tri
      stencil: half/bin/2d/newton/tri
      bin: standard
Per MPI rank memory allocation (min/avg/max) = 4.18 | 4.18 | 4.18 Mbytes
Step Temp E_pair E_mol TotEng Press 
15000000    1.7761521   -2.0346592            0   -0.2638355    22.487188 
20000000    1.7077762   -2.2277856            0  -0.52513272    20.668643 
Loop time of 174.418 on 8 procs for 5000000 steps with 500 atoms

Performance: 7430421.750 tau/day, 28666.751 timesteps/s
99.2% CPU use with 8 MPI tasks x 1 OpenMP threads

MPI task timing breakdown:
Section |  min time  |  avg time  |  max time  |%varavg| %total
---------------------------------------------------------------
Pair    | 90.267     | 91.113     | 91.886     |   5.0 | 52.24
Neigh   | 1.6347     | 1.7497     | 1.7883     |   3.5 |  1.00
Comm    | 49.729     | 50.377     | 51.608     |   8.4 | 28.88
Output  | 0.0019891  | 0.0020001  | 0.00207    |   0.1 |  0.00
Modify  | 19.171     | 19.581     | 20.458     |   8.5 | 11.23
Other   |            | 11.6       |            |       |  6.65

Nlocal:    62.5 ave 66 max 59 min
Histogram: 1 0 2 0 1 1 0 2 0 1
Nghost:    262.75 ave 267 max 258 min
Histogram: 1 1 0 0 2 1 1 0 0 2
Neighs:    2090.5 ave 2238 max 2005 min
Histogram: 2 1 0 2 1 1 0 0 0 1

Total # of neighbors = 16724
Ave neighs/atom = 33.448
Neighbor list builds = 22240
Dangerous builds = 0
  unfix		1
  undump 	 mydump
  # save MD configuration
  write_restart	temp.rest
  write_data	temp.*.dat


  #find energy minimum
  variable	c equal pe
  variable	f equal vol
  variable	g equal density
  variable      h equal temp
  variable      j equal press
  variable	c_rate equal ${T_step}/(${cool_run}*${dt})
  variable	c_rate equal 0.05/(${cool_run}*${dt})
  variable	c_rate equal 0.05/(5000000*${dt})
  variable	c_rate equal 0.05/(5000000*0.003)
# Compute State

  dump          mydump1 all custom 5000 md_state.*.lammpstrj id type x y z c_peratom_pe vx vy vz
  fix      	3 all npt temp 0.01 0.001 0.15 tri 0.0 0.0 1.5
  run           10000						#Try different values
Per MPI rank memory allocation (min/avg/max) = 4.569 | 4.569 | 4.569 Mbytes
Step Temp E_pair E_mol TotEng Press Volume 
20000000    1.7077762   -2.2277856            0  -0.52513272    20.668643    416.66667 
20010000 0.0010170519   -3.8501697            0   -3.8491557 0.0081206864    435.34753 
Loop time of 0.447354 on 8 procs for 10000 steps with 500 atoms

Performance: 5794069.656 tau/day, 22353.664 timesteps/s
99.7% CPU use with 8 MPI tasks x 1 OpenMP threads

MPI task timing breakdown:
Section |  min time  |  avg time  |  max time  |%varavg| %total
---------------------------------------------------------------
Pair    | 0.16606    | 0.17498    | 0.18387    |   1.3 | 39.12
Neigh   | 0.00041389 | 0.00046167 | 0.00048709 |   0.0 |  0.10
Comm    | 0.087193   | 0.094355   | 0.1025     |   1.5 | 21.09
Output  | 0.0030832  | 0.0034883  | 0.003823   |   0.4 |  0.78
Modify  | 0.14156    | 0.14639    | 0.15473    |   1.3 | 32.72
Other   |            | 0.02768    |            |       |  6.19

Nlocal:    62.5 ave 66 max 60 min
Histogram: 1 2 0 0 0 4 0 0 0 1
Nghost:    254.875 ave 258 max 251 min
Histogram: 1 0 1 0 2 1 0 1 0 2
Neighs:    1994.5 ave 2110 max 1902 min
Histogram: 2 1 0 1 0 1 1 1 0 1

Total # of neighbors = 15956
Ave neighs/atom = 31.912
Neighbor list builds = 6
Dangerous builds = 1
  unfix         3
  undump	mydump1

  dump          mydump2 all custom 50000 md_min.*.lammpstrj id type x y z c_peratom_pe vx vy vz
  fix           4 all box/relax tri 0.0
  min_style	cg
  min_modify	line quadratic
  minimize	1.0e-10 1.0e-10 100000 100000
WARNING: Using 'neigh_modify every 1 delay 0 check yes' setting during minimization (../min.cpp:168)
Per MPI rank memory allocation (min/avg/max) = 4.424 | 4.424 | 4.424 Mbytes
Step Temp E_pair E_mol TotEng Press Volume 
20010000 0.0010170519   -3.8501697            0   -3.8491557 0.0081206864    435.34753 
20010009 0.0010170519   -3.8502757            0   -3.8492617 0.0078257992    435.34356 
Loop time of 0.00324681 on 8 procs for 9 steps with 500 atoms

84.3% CPU use with 8 MPI tasks x 1 OpenMP threads

Minimization stats:
  Stopping criterion = linesearch alpha is zero
  Energy initial, next-to-last, final = 
        -3.85016972792     -3.85027565337     -3.85027565337
  Force two-norm initial, final = 12.7859 11.4329
  Force max component initial, final = 3.84186 2.94087
  Final line search alpha, max atom move = 3.32066e-08 9.76563e-08
  Iterations, force evaluations = 9 28

MPI task timing breakdown:
Section |  min time  |  avg time  |  max time  |%varavg| %total
---------------------------------------------------------------
Pair    | 0.00068331 | 0.00074705 | 0.0007751  |   0.0 | 23.01
Neigh   | 0          | 0          | 0          |   0.0 |  0.00
Comm    | 0.0002625  | 0.00028467 | 0.00034118 |   0.0 |  8.77
Output  | 0          | 0          | 0          |   0.0 |  0.00
Modify  | 0          | 0          | 0          |   0.0 |  0.00
Other   |            | 0.002215   |            |       | 68.22

Nlocal:    62.5 ave 65 max 58 min
Histogram: 1 0 0 0 1 1 0 2 2 1
Nghost:    256.5 ave 261 max 254 min
Histogram: 3 0 0 0 3 1 0 0 0 1
Neighs:    1996 ave 2069 max 1841 min
Histogram: 1 0 0 0 1 1 0 1 1 3

Total # of neighbors = 15968
Ave neighs/atom = 31.936
Neighbor list builds = 0
Dangerous builds = 0
  unfix         4
  undump	mydump2

  print		'$b $h $c $f $g $j ${c_rate}' append out_AB_cooling.dat
1.8 0.00101705187828228 -3.85027565336772 435.343560254529 1.14851819493475 0.00782579915401834 3.33333333333333e-06

 # reload MD
  clear
  using 1 OpenMP thread(s) per MPI task
  read_restart    temp.rest
  restoring atom style atomic from restart
  triclinic box = (0 0 -5) to (20.4124 20.4124 5) with tilt (0 0 0)
  4 by 2 by 1 MPI processor grid
  restoring pair style lj/cut from restart
  500 atoms
  read_restart CPU = 0.00160098 secs
  include         pot.mod
#LJ Potential for binary glass
pair_style	lj/cut 2.5
pair_coeff	1 1 1.0 1.0 2.5		#e_AA=1.0 , sigma_AA=1.0, rc_AA=2.5*e_AA=2.5
pair_coeff	1 2 1.5 0.8 2.0		#e_AB=1.5 , sigma_AB=0.8, rc_AB=2.5*e_AB=2.0
pair_coeff	2 2 0.5 0.88 2.2	#e_AB=0.5 , sigma_BB=0.88, rc_BB=2.5*e_BB=2.2

neighbor        2.0 bin
neigh_modify    every 1 check yes






next            d
jump            in.binary_loop lcycle
  variable	a equal (2.0-(($d-1)*${T_step}))
  variable	a equal (2.0-((5-1)*${T_step}))
  variable	a equal (2.0-((5-1)*0.05))
  variable	b equal (2.0-(($d)*${T_step}))
  variable	b equal (2.0-((5)*${T_step}))
  variable	b equal (2.0-((5)*0.05))
  variable	t_step equal ($d-1)*${cool_run}
  variable	t_step equal (5-1)*${cool_run}
  variable	t_step equal (5-1)*5000000
  reset_timestep	${t_step}
  reset_timestep	20000000
  print		"Loop number = $d; Temperature = $a K to $b K"
Loop number = 5; Temperature = 1.8 K to 1.75 K

  compute	  peratom_pe all pe/atom
  dump            mydump all custom 5000000 md.*.lammpstrj id type x y z c_peratom_pe vx vy vz

  fix		1 all nvt temp $a $b 0.15 #iso 0.0 0.0 1.5
  fix		1 all nvt temp 1.8 $b 0.15 
  fix		1 all nvt temp 1.8 1.75 0.15 
  run		${cool_run}
  run		5000000
Neighbor list info ...
  update every 1 steps, delay 10 steps, check yes
  max neighbors/atom: 2000, page size: 100000
  master list distance cutoff = 4.5
  ghost atom cutoff = 4.5
  binsize = 2.25, bins = 10 10 5
  1 neighbor lists, perpetual/occasional/extra = 1 0 0
  (1) pair lj/cut, perpetual
      attributes: half, newton on
      pair build: half/bin/newton/tri
      stencil: half/bin/2d/newton/tri
      bin: standard
Per MPI rank memory allocation (min/avg/max) = 4.18 | 4.18 | 4.18 Mbytes
Step Temp E_pair E_mol TotEng Press 
20000000    1.7077762   -2.2277856            0  -0.52513272    20.668643 
25000000    1.7610638   -2.1946643            0  -0.43888366    20.918996 
Loop time of 177.025 on 8 procs for 5000000 steps with 500 atoms

Performance: 7320979.891 tau/day, 28244.521 timesteps/s
98.9% CPU use with 8 MPI tasks x 1 OpenMP threads

MPI task timing breakdown:
Section |  min time  |  avg time  |  max time  |%varavg| %total
---------------------------------------------------------------
Pair    | 90.004     | 90.898     | 92.624     |  10.2 | 51.35
Neigh   | 1.5914     | 1.6923     | 1.7292     |   3.2 |  0.96
Comm    | 50.702     | 52.372     | 53.65      |  14.6 | 29.58
Output  | 0.001869   | 0.0018781  | 0.0019379  |   0.1 |  0.00
Modify  | 19.135     | 20.473     | 22.962     |  31.8 | 11.56
Other   |            | 11.59      |            |       |  6.55

Nlocal:    62.5 ave 65 max 61 min
Histogram: 2 0 4 0 0 0 0 0 0 2
Nghost:    262.875 ave 265 max 259 min
Histogram: 1 0 0 0 0 1 3 0 2 1
Neighs:    2087 ave 2196 max 2026 min
Histogram: 2 1 2 1 0 0 0 0 1 1

Total # of neighbors = 16696
Ave neighs/atom = 33.392
Neighbor list builds = 21513
Dangerous builds = 0
  unfix		1
  undump 	 mydump
  # save MD configuration
  write_restart	temp.rest
  write_data	temp.*.dat


  #find energy minimum
  variable	c equal pe
  variable	f equal vol
  variable	g equal density
  variable      h equal temp
  variable      j equal press
  variable	c_rate equal ${T_step}/(${cool_run}*${dt})
  variable	c_rate equal 0.05/(${cool_run}*${dt})
  variable	c_rate equal 0.05/(5000000*${dt})
  variable	c_rate equal 0.05/(5000000*0.003)
# Compute State

  dump          mydump1 all custom 5000 md_state.*.lammpstrj id type x y z c_peratom_pe vx vy vz
  fix      	3 all npt temp 0.01 0.001 0.15 tri 0.0 0.0 1.5
  run           10000						#Try different values
Per MPI rank memory allocation (min/avg/max) = 4.569 | 4.569 | 4.569 Mbytes
Step Temp E_pair E_mol TotEng Press Volume 
25000000    1.7610638   -2.1946643            0  -0.43888366    20.918996    416.66667 
25010000  0.001091632   -3.8517246            0   -3.8506362   -0.0016997    435.65568 
Loop time of 0.442559 on 8 procs for 10000 steps with 500 atoms

Performance: 5856843.789 tau/day, 22595.848 timesteps/s
99.6% CPU use with 8 MPI tasks x 1 OpenMP threads

MPI task timing breakdown:
Section |  min time  |  avg time  |  max time  |%varavg| %total
---------------------------------------------------------------
Pair    | 0.15973    | 0.17284    | 0.18037    |   1.5 | 39.06
Neigh   | 0.0004468  | 0.00046813 | 0.00048685 |   0.0 |  0.11
Comm    | 0.087568   | 0.093402   | 0.1073     |   2.0 | 21.10
Output  | 0.0032153  | 0.0036357  | 0.0039711  |   0.4 |  0.82
Modify  | 0.14076    | 0.14445    | 0.14806    |   0.6 | 32.64
Other   |            | 0.02776    |            |       |  6.27

Nlocal:    62.5 ave 65 max 60 min
Histogram: 1 0 2 0 1 0 1 0 2 1
Nghost:    252.75 ave 256 max 247 min
Histogram: 1 0 0 2 0 1 0 0 1 3
Neighs:    1993.75 ave 2107 max 1871 min
Histogram: 1 0 0 2 2 0 0 2 0 1

Total # of neighbors = 15950
Ave neighs/atom = 31.9
Neighbor list builds = 6
Dangerous builds = 1
  unfix         3
  undump	mydump1

  dump          mydump2 all custom 50000 md_min.*.lammpstrj id type x y z c_peratom_pe vx vy vz
  fix           4 all box/relax tri 0.0
  min_style	cg
  min_modify	line quadratic
  minimize	1.0e-10 1.0e-10 100000 100000
WARNING: Using 'neigh_modify every 1 delay 0 check yes' setting during minimization (../min.cpp:168)
Per MPI rank memory allocation (min/avg/max) = 4.424 | 4.424 | 4.424 Mbytes
Step Temp E_pair E_mol TotEng Press Volume 
25010000  0.001091632   -3.8517246            0   -3.8506362   -0.0016997    435.65568 
25010039  0.001091632   -3.8521678            0   -3.8510794 0.0038794526    435.58995 
Loop time of 0.00560495 on 8 procs for 39 steps with 500 atoms

88.9% CPU use with 8 MPI tasks x 1 OpenMP threads

Minimization stats:
  Stopping criterion = linesearch alpha is zero
  Energy initial, next-to-last, final = 
        -3.85172457715     -3.85216778807     -3.85216778807
  Force two-norm initial, final = 13.7581 6.63664
  Force max component initial, final = 1.65287 1.1476
  Final line search alpha, max atom move = 8.50957e-08 9.76563e-08
  Iterations, force evaluations = 39 67

MPI task timing breakdown:
Section |  min time  |  avg time  |  max time  |%varavg| %total
---------------------------------------------------------------
Pair    | 0.0016372  | 0.0017305  | 0.0017993  |   0.1 | 30.88
Neigh   | 0          | 0          | 0          |   0.0 |  0.00
Comm    | 0.00062847 | 0.00070524 | 0.00083256 |   0.0 | 12.58
Output  | 0          | 0          | 0          |   0.0 |  0.00
Modify  | 0          | 0          | 0          |   0.0 |  0.00
Other   |            | 0.003169   |            |       | 56.54

Nlocal:    62.5 ave 64 max 61 min
Histogram: 2 0 0 2 0 0 2 0 0 2
Nghost:    253 ave 257 max 250 min
Histogram: 1 2 2 0 0 1 0 0 0 2
Neighs:    1995.62 ave 2061 max 1914 min
Histogram: 1 0 1 1 1 0 0 1 2 1

Total # of neighbors = 15965
Ave neighs/atom = 31.93
Neighbor list builds = 0
Dangerous builds = 0
  unfix         4
  undump	mydump2

  print		'$b $h $c $f $g $j ${c_rate}' append out_AB_cooling.dat
1.75 0.00109163199975255 -3.85216778807433 435.589951181079 1.14786853701348 0.00387945264667364 3.33333333333333e-06

 # reload MD
  clear
  using 1 OpenMP thread(s) per MPI task
  read_restart    temp.rest
  restoring atom style atomic from restart
  triclinic box = (0 0 -5) to (20.4124 20.4124 5) with tilt (0 0 0)
  4 by 2 by 1 MPI processor grid
  restoring pair style lj/cut from restart
  500 atoms
  read_restart CPU = 0.00175309 secs
  include         pot.mod
#LJ Potential for binary glass
pair_style	lj/cut 2.5
pair_coeff	1 1 1.0 1.0 2.5		#e_AA=1.0 , sigma_AA=1.0, rc_AA=2.5*e_AA=2.5
pair_coeff	1 2 1.5 0.8 2.0		#e_AB=1.5 , sigma_AB=0.8, rc_AB=2.5*e_AB=2.0
pair_coeff	2 2 0.5 0.88 2.2	#e_AB=0.5 , sigma_BB=0.88, rc_BB=2.5*e_BB=2.2

neighbor        2.0 bin
neigh_modify    every 1 check yes






next            d
jump            in.binary_loop lcycle
  variable	a equal (2.0-(($d-1)*${T_step}))
  variable	a equal (2.0-((6-1)*${T_step}))
  variable	a equal (2.0-((6-1)*0.05))
  variable	b equal (2.0-(($d)*${T_step}))
  variable	b equal (2.0-((6)*${T_step}))
  variable	b equal (2.0-((6)*0.05))
  variable	t_step equal ($d-1)*${cool_run}
  variable	t_step equal (6-1)*${cool_run}
  variable	t_step equal (6-1)*5000000
  reset_timestep	${t_step}
  reset_timestep	25000000
  print		"Loop number = $d; Temperature = $a K to $b K"
Loop number = 6; Temperature = 1.75 K to 1.7 K

  compute	  peratom_pe all pe/atom
  dump            mydump all custom 5000000 md.*.lammpstrj id type x y z c_peratom_pe vx vy vz

  fix		1 all nvt temp $a $b 0.15 #iso 0.0 0.0 1.5
  fix		1 all nvt temp 1.75 $b 0.15 
  fix		1 all nvt temp 1.75 1.7 0.15 
  run		${cool_run}
  run		5000000
Neighbor list info ...
  update every 1 steps, delay 10 steps, check yes
  max neighbors/atom: 2000, page size: 100000
  master list distance cutoff = 4.5
  ghost atom cutoff = 4.5
  binsize = 2.25, bins = 10 10 5
  1 neighbor lists, perpetual/occasional/extra = 1 0 0
  (1) pair lj/cut, perpetual
      attributes: half, newton on
      pair build: half/bin/newton/tri
      stencil: half/bin/2d/newton/tri
      bin: standard
Per MPI rank memory allocation (min/avg/max) = 4.18 | 4.18 | 4.18 Mbytes
Step Temp E_pair E_mol TotEng Press 
25000000    1.7610638   -2.1946643            0  -0.43888366    20.918996 
30000000    1.5946027   -2.2848491            0  -0.69503022    19.986351 
Loop time of 174.465 on 8 procs for 5000000 steps with 500 atoms

Performance: 7428438.217 tau/day, 28659.098 timesteps/s
99.1% CPU use with 8 MPI tasks x 1 OpenMP threads

MPI task timing breakdown:
Section |  min time  |  avg time  |  max time  |%varavg| %total
---------------------------------------------------------------
Pair    | 90.086     | 90.713     | 91.472     |   4.9 | 51.99
Neigh   | 1.5403     | 1.6379     | 1.6731     |   3.1 |  0.94
Comm    | 49.845     | 50.814     | 51.681     |   9.6 | 29.13
Output  | 0.0018311  | 0.0018398  | 0.0018961  |   0.0 |  0.00
Modify  | 19.171     | 19.615     | 20.379     |   9.0 | 11.24
Other   |            | 11.68      |            |       |  6.70

Nlocal:    62.5 ave 65 max 59 min
Histogram: 1 0 0 2 0 1 1 0 1 2
Nghost:    263.125 ave 269 max 257 min
Histogram: 1 0 0 2 0 2 2 0 0 1
Neighs:    2084.38 ave 2160 max 1964 min
Histogram: 1 0 0 1 2 0 0 0 2 2

Total # of neighbors = 16675
Ave neighs/atom = 33.35
Neighbor list builds = 20805
Dangerous builds = 0
  unfix		1
  undump 	 mydump
  # save MD configuration
  write_restart	temp.rest
  write_data	temp.*.dat


  #find energy minimum
  variable	c equal pe
  variable	f equal vol
  variable	g equal density
  variable      h equal temp
  variable      j equal press
  variable	c_rate equal ${T_step}/(${cool_run}*${dt})
  variable	c_rate equal 0.05/(${cool_run}*${dt})
  variable	c_rate equal 0.05/(5000000*${dt})
  variable	c_rate equal 0.05/(5000000*0.003)
# Compute State

  dump          mydump1 all custom 5000 md_state.*.lammpstrj id type x y z c_peratom_pe vx vy vz
  fix      	3 all npt temp 0.01 0.001 0.15 tri 0.0 0.0 1.5
  run           10000						#Try different values
Per MPI rank memory allocation (min/avg/max) = 4.569 | 4.569 | 4.569 Mbytes
Step Temp E_pair E_mol TotEng Press Volume 
30000000    1.5946027   -2.2848491            0  -0.69503022    19.986351    416.66667 
30010000 0.00097525962   -3.8633003            0    -3.862328 -0.0045412527    434.74433 
Loop time of 0.442184 on 8 procs for 10000 steps with 500 atoms

Performance: 5861809.610 tau/day, 22615.006 timesteps/s
99.8% CPU use with 8 MPI tasks x 1 OpenMP threads

MPI task timing breakdown:
Section |  min time  |  avg time  |  max time  |%varavg| %total
---------------------------------------------------------------
Pair    | 0.16374    | 0.17315    | 0.1841     |   1.5 | 39.16
Neigh   | 0.00041485 | 0.00046182 | 0.00048089 |   0.0 |  0.10
Comm    | 0.08656    | 0.095039   | 0.10517    |   1.7 | 21.49
Output  | 0.003094   | 0.0035698  | 0.0039537  |   0.5 |  0.81
Modify  | 0.13944    | 0.1422     | 0.14956    |   0.9 | 32.16
Other   |            | 0.02776    |            |       |  6.28

Nlocal:    62.5 ave 65 max 60 min
Histogram: 1 0 2 0 2 0 0 0 1 2
Nghost:    255.25 ave 258 max 251 min
Histogram: 2 1 0 0 0 0 0 1 0 4
Neighs:    1995.12 ave 2126 max 1910 min
Histogram: 3 0 1 0 1 0 1 0 1 1

Total # of neighbors = 15961
Ave neighs/atom = 31.922
Neighbor list builds = 6
Dangerous builds = 1
  unfix         3
  undump	mydump1

  dump          mydump2 all custom 50000 md_min.*.lammpstrj id type x y z c_peratom_pe vx vy vz
  fix           4 all box/relax tri 0.0
  min_style	cg
  min_modify	line quadratic
  minimize	1.0e-10 1.0e-10 100000 100000
WARNING: Using 'neigh_modify every 1 delay 0 check yes' setting during minimization (../min.cpp:168)
Per MPI rank memory allocation (min/avg/max) = 4.424 | 4.424 | 4.424 Mbytes
Step Temp E_pair E_mol TotEng Press Volume 
30010000 0.00097525962   -3.8633003            0    -3.862328 -0.0045412527    434.74433 
30010007 0.00097525962    -3.863318            0   -3.8623457 0.0011916059    434.71212 
Loop time of 0.00403494 on 8 procs for 7 steps with 500 atoms

90.8% CPU use with 8 MPI tasks x 1 OpenMP threads

Minimization stats:
  Stopping criterion = linesearch alpha is zero
  Energy initial, next-to-last, final = 
        -3.86330033631     -3.86331798601     -3.86331798601
  Force two-norm initial, final = 13.5892 12.2424
  Force max component initial, final = 4.28503 1.34809
  Final line search alpha, max atom move = 2.31798e-08 3.12484e-08
  Iterations, force evaluations = 7 43

MPI task timing breakdown:
Section |  min time  |  avg time  |  max time  |%varavg| %total
---------------------------------------------------------------
Pair    | 0.0010791  | 0.0011261  | 0.001168   |   0.1 | 27.91
Neigh   | 0          | 0          | 0          |   0.0 |  0.00
Comm    | 0.00036693 | 0.00042346 | 0.00047302 |   0.0 | 10.49
Output  | 0          | 0          | 0          |   0.0 |  0.00
Modify  | 0          | 0          | 0          |   0.0 |  0.00
Other   |            | 0.002485   |            |       | 61.60

Nlocal:    62.5 ave 65 max 61 min
Histogram: 3 0 2 0 0 0 0 2 0 1
Nghost:    255.75 ave 259 max 253 min
Histogram: 1 3 0 0 0 1 1 0 0 2
Neighs:    1996.88 ave 2069 max 1916 min
Histogram: 1 2 0 1 0 0 0 1 1 2

Total # of neighbors = 15975
Ave neighs/atom = 31.95
Neighbor list builds = 0
Dangerous builds = 0
  unfix         4
  undump	mydump2

  print		'$b $h $c $f $g $j ${c_rate}' append out_AB_cooling.dat
1.7 0.000975259617284519 -3.86331798601291 434.71211834032 1.150186477223 0.0011916059139876 3.33333333333333e-06

 # reload MD
  clear
  using 1 OpenMP thread(s) per MPI task
  read_restart    temp.rest
  restoring atom style atomic from restart
  triclinic box = (0 0 -5) to (20.4124 20.4124 5) with tilt (0 0 0)
  4 by 2 by 1 MPI processor grid
  restoring pair style lj/cut from restart
  500 atoms
  read_restart CPU = 0.0020709 secs
  include         pot.mod
#LJ Potential for binary glass
pair_style	lj/cut 2.5
pair_coeff	1 1 1.0 1.0 2.5		#e_AA=1.0 , sigma_AA=1.0, rc_AA=2.5*e_AA=2.5
pair_coeff	1 2 1.5 0.8 2.0		#e_AB=1.5 , sigma_AB=0.8, rc_AB=2.5*e_AB=2.0
pair_coeff	2 2 0.5 0.88 2.2	#e_AB=0.5 , sigma_BB=0.88, rc_BB=2.5*e_BB=2.2

neighbor        2.0 bin
neigh_modify    every 1 check yes






next            d
jump            in.binary_loop lcycle
  variable	a equal (2.0-(($d-1)*${T_step}))
  variable	a equal (2.0-((7-1)*${T_step}))
  variable	a equal (2.0-((7-1)*0.05))
  variable	b equal (2.0-(($d)*${T_step}))
  variable	b equal (2.0-((7)*${T_step}))
  variable	b equal (2.0-((7)*0.05))
  variable	t_step equal ($d-1)*${cool_run}
  variable	t_step equal (7-1)*${cool_run}
  variable	t_step equal (7-1)*5000000
  reset_timestep	${t_step}
  reset_timestep	30000000
  print		"Loop number = $d; Temperature = $a K to $b K"
Loop number = 7; Temperature = 1.7 K to 1.65 K

  compute	  peratom_pe all pe/atom
  dump            mydump all custom 5000000 md.*.lammpstrj id type x y z c_peratom_pe vx vy vz

  fix		1 all nvt temp $a $b 0.15 #iso 0.0 0.0 1.5
  fix		1 all nvt temp 1.7 $b 0.15 
  fix		1 all nvt temp 1.7 1.65 0.15 
  run		${cool_run}
  run		5000000
Neighbor list info ...
  update every 1 steps, delay 10 steps, check yes
  max neighbors/atom: 2000, page size: 100000
  master list distance cutoff = 4.5
  ghost atom cutoff = 4.5
  binsize = 2.25, bins = 10 10 5
  1 neighbor lists, perpetual/occasional/extra = 1 0 0
  (1) pair lj/cut, perpetual
      attributes: half, newton on
      pair build: half/bin/newton/tri
      stencil: half/bin/2d/newton/tri
      bin: standard
Per MPI rank memory allocation (min/avg/max) = 4.18 | 4.18 | 4.18 Mbytes
Step Temp E_pair E_mol TotEng Press 
30000000    1.5946027   -2.2848491            0  -0.69503022    19.986351 
35000000    1.6339382   -2.1665237            0  -0.53748728    20.876701 
Loop time of 173.311 on 8 procs for 5000000 steps with 500 atoms

Performance: 7477885.796 tau/day, 28849.868 timesteps/s
99.2% CPU use with 8 MPI tasks x 1 OpenMP threads

MPI task timing breakdown:
Section |  min time  |  avg time  |  max time  |%varavg| %total
---------------------------------------------------------------
Pair    | 89.686     | 90.528     | 91.274     |   5.6 | 52.23
Neigh   | 1.4862     | 1.5814     | 1.6143     |   3.1 |  0.91
Comm    | 49.576     | 50.31      | 51.332     |   7.5 | 29.03
Output  | 0.086333   | 0.086342   | 0.086401   |   0.0 |  0.05
Modify  | 19.148     | 19.391     | 19.975     |   6.4 | 11.19
Other   |            | 11.41      |            |       |  6.59

Nlocal:    62.5 ave 65 max 58 min
Histogram: 1 0 0 0 1 1 0 2 2 1
Nghost:    259.875 ave 265 max 254 min
Histogram: 2 0 0 0 1 1 1 1 1 1
Neighs:    2096.88 ave 2242 max 1983 min
Histogram: 1 0 1 2 0 3 0 0 0 1

Total # of neighbors = 16775
Ave neighs/atom = 33.55
Neighbor list builds = 20065
Dangerous builds = 0
  unfix		1
  undump 	 mydump
  # save MD configuration
  write_restart	temp.rest
  write_data	temp.*.dat


  #find energy minimum
  variable	c equal pe
  variable	f equal vol
  variable	g equal density
  variable      h equal temp
  variable      j equal press
  variable	c_rate equal ${T_step}/(${cool_run}*${dt})
  variable	c_rate equal 0.05/(${cool_run}*${dt})
  variable	c_rate equal 0.05/(5000000*${dt})
  variable	c_rate equal 0.05/(5000000*0.003)
# Compute State

  dump          mydump1 all custom 5000 md_state.*.lammpstrj id type x y z c_peratom_pe vx vy vz
  fix      	3 all npt temp 0.01 0.001 0.15 tri 0.0 0.0 1.5
  run           10000						#Try different values
Per MPI rank memory allocation (min/avg/max) = 4.569 | 4.569 | 4.569 Mbytes
Step Temp E_pair E_mol TotEng Press Volume 
35000000    1.6339382   -2.1665237            0  -0.53748728    20.876701    416.66667 
35010000 0.00096329717   -3.8421378            0   -3.8411774 0.00046791182    435.61935 
Loop time of 0.456078 on 8 procs for 10000 steps with 500 atoms

Performance: 5683244.424 tau/day, 21926.097 timesteps/s
99.3% CPU use with 8 MPI tasks x 1 OpenMP threads

MPI task timing breakdown:
Section |  min time  |  avg time  |  max time  |%varavg| %total
---------------------------------------------------------------
Pair    | 0.15547    | 0.17359    | 0.185      |   2.1 | 38.06
Neigh   | 0.00043201 | 0.00046867 | 0.00050211 |   0.0 |  0.10
Comm    | 0.094493   | 0.10307    | 0.11369    |   2.1 | 22.60
Output  | 0.003001   | 0.0036297  | 0.0040488  |   0.6 |  0.80
Modify  | 0.14291    | 0.14757    | 0.15301    |   1.0 | 32.36
Other   |            | 0.02775    |            |       |  6.08

Nlocal:    62.5 ave 67 max 57 min
Histogram: 1 0 0 0 0 3 2 1 0 1
Nghost:    253.25 ave 260 max 248 min
Histogram: 1 0 1 3 1 0 0 0 1 1
Neighs:    1990.5 ave 2152 max 1731 min
Histogram: 1 0 0 0 1 0 4 1 0 1

Total # of neighbors = 15924
Ave neighs/atom = 31.848
Neighbor list builds = 6
Dangerous builds = 1
  unfix         3
  undump	mydump1

  dump          mydump2 all custom 50000 md_min.*.lammpstrj id type x y z c_peratom_pe vx vy vz
  fix           4 all box/relax tri 0.0
  min_style	cg
  min_modify	line quadratic
  minimize	1.0e-10 1.0e-10 100000 100000
WARNING: Using 'neigh_modify every 1 delay 0 check yes' setting during minimization (../min.cpp:168)
Per MPI rank memory allocation (min/avg/max) = 4.424 | 4.424 | 4.424 Mbytes
Step Temp E_pair E_mol TotEng Press Volume 
35010000 0.00096329717   -3.8421378            0   -3.8411774 0.00046791182    435.61935 
35010029 0.00096329717   -3.8425201            0   -3.8415597 0.0023604061    435.59609 
Loop time of 0.00565848 on 8 procs for 29 steps with 500 atoms

84.7% CPU use with 8 MPI tasks x 1 OpenMP threads

Minimization stats:
  Stopping criterion = linesearch alpha is zero
  Energy initial, next-to-last, final = 
        -3.84213778635     -3.84252010069     -3.84252010069
  Force two-norm initial, final = 13.446 6.4963
  Force max component initial, final = 2.1672 0.73066
  Final line search alpha, max atom move = 8.87202e-08 6.48243e-08
  Iterations, force evaluations = 29 70

MPI task timing breakdown:
Section |  min time  |  avg time  |  max time  |%varavg| %total
---------------------------------------------------------------
Pair    | 0.0016212  | 0.0018219  | 0.002022   |   0.3 | 32.20
Neigh   | 0          | 0          | 0          |   0.0 |  0.00
Comm    | 0.00061727 | 0.0007855  | 0.00091529 |   0.0 | 13.88
Output  | 0          | 0          | 0          |   0.0 |  0.00
Modify  | 0          | 0          | 0          |   0.0 |  0.00
Other   |            | 0.003051   |            |       | 53.92

Nlocal:    62.5 ave 67 max 57 min
Histogram: 1 0 0 0 0 3 2 1 0 1
Nghost:    253.375 ave 258 max 250 min
Histogram: 1 0 3 2 0 0 0 0 1 1
Neighs:    1990.75 ave 2164 max 1729 min
Histogram: 1 0 0 0 1 1 3 0 1 1

Total # of neighbors = 15926
Ave neighs/atom = 31.852
Neighbor list builds = 0
Dangerous builds = 0
  unfix         4
  undump	mydump2

  print		'$b $h $c $f $g $j ${c_rate}' append out_AB_cooling.dat
1.65 0.00096329717011851 -3.84252010068576 435.596094386568 1.14785234863993 0.00236040607050662 3.33333333333333e-06

 # reload MD
  clear
  using 1 OpenMP thread(s) per MPI task
  read_restart    temp.rest
  restoring atom style atomic from restart
  triclinic box = (0 0 -5) to (20.4124 20.4124 5) with tilt (0 0 0)
  4 by 2 by 1 MPI processor grid
  restoring pair style lj/cut from restart
  500 atoms
  read_restart CPU = 0.000889063 secs
  include         pot.mod
#LJ Potential for binary glass
pair_style	lj/cut 2.5
pair_coeff	1 1 1.0 1.0 2.5		#e_AA=1.0 , sigma_AA=1.0, rc_AA=2.5*e_AA=2.5
pair_coeff	1 2 1.5 0.8 2.0		#e_AB=1.5 , sigma_AB=0.8, rc_AB=2.5*e_AB=2.0
pair_coeff	2 2 0.5 0.88 2.2	#e_AB=0.5 , sigma_BB=0.88, rc_BB=2.5*e_BB=2.2

neighbor        2.0 bin
neigh_modify    every 1 check yes






next            d
jump            in.binary_loop lcycle
  variable	a equal (2.0-(($d-1)*${T_step}))
  variable	a equal (2.0-((8-1)*${T_step}))
  variable	a equal (2.0-((8-1)*0.05))
  variable	b equal (2.0-(($d)*${T_step}))
  variable	b equal (2.0-((8)*${T_step}))
  variable	b equal (2.0-((8)*0.05))
  variable	t_step equal ($d-1)*${cool_run}
  variable	t_step equal (8-1)*${cool_run}
  variable	t_step equal (8-1)*5000000
  reset_timestep	${t_step}
  reset_timestep	35000000
  print		"Loop number = $d; Temperature = $a K to $b K"
Loop number = 8; Temperature = 1.65 K to 1.6 K

  compute	  peratom_pe all pe/atom
  dump            mydump all custom 5000000 md.*.lammpstrj id type x y z c_peratom_pe vx vy vz

  fix		1 all nvt temp $a $b 0.15 #iso 0.0 0.0 1.5
  fix		1 all nvt temp 1.65 $b 0.15 
  fix		1 all nvt temp 1.65 1.6 0.15 
  run		${cool_run}
  run		5000000
Neighbor list info ...
  update every 1 steps, delay 10 steps, check yes
  max neighbors/atom: 2000, page size: 100000
  master list distance cutoff = 4.5
  ghost atom cutoff = 4.5
  binsize = 2.25, bins = 10 10 5
  1 neighbor lists, perpetual/occasional/extra = 1 0 0
  (1) pair lj/cut, perpetual
      attributes: half, newton on
      pair build: half/bin/newton/tri
      stencil: half/bin/2d/newton/tri
      bin: standard
Per MPI rank memory allocation (min/avg/max) = 4.18 | 4.18 | 4.18 Mbytes
Step Temp E_pair E_mol TotEng Press 
35000000    1.6339382   -2.1665237            0  -0.53748728    20.876701 
40000000    1.5499146   -2.2423245            0  -0.69705961     20.34121 
Loop time of 173.209 on 8 procs for 5000000 steps with 500 atoms

Performance: 7482309.925 tau/day, 28866.936 timesteps/s
99.2% CPU use with 8 MPI tasks x 1 OpenMP threads

MPI task timing breakdown:
Section |  min time  |  avg time  |  max time  |%varavg| %total
---------------------------------------------------------------
Pair    | 89.833     | 90.431     | 91.035     |   4.4 | 52.21
Neigh   | 1.4355     | 1.5198     | 1.551      |   2.8 |  0.88
Comm    | 49.586     | 50.319     | 51.214     |   8.0 | 29.05
Output  | 0.001785   | 0.0017958  | 0.0018699  |   0.1 |  0.00
Modify  | 18.894     | 19.436     | 20.553     |  11.2 | 11.22
Other   |            | 11.5       |            |       |  6.64

Nlocal:    62.5 ave 64 max 61 min
Histogram: 2 0 0 3 0 0 0 0 0 3
Nghost:    263.5 ave 266 max 260 min
Histogram: 1 0 0 2 0 1 0 0 3 1
Neighs:    2088.5 ave 2168 max 2020 min
Histogram: 1 1 1 1 1 0 0 1 1 1

Total # of neighbors = 16708
Ave neighs/atom = 33.416
Neighbor list builds = 19279
Dangerous builds = 0
  unfix		1
  undump 	 mydump
  # save MD configuration
  write_restart	temp.rest
  write_data	temp.*.dat


  #find energy minimum
  variable	c equal pe
  variable	f equal vol
  variable	g equal density
  variable      h equal temp
  variable      j equal press
  variable	c_rate equal ${T_step}/(${cool_run}*${dt})
  variable	c_rate equal 0.05/(${cool_run}*${dt})
  variable	c_rate equal 0.05/(5000000*${dt})
  variable	c_rate equal 0.05/(5000000*0.003)
# Compute State

  dump          mydump1 all custom 5000 md_state.*.lammpstrj id type x y z c_peratom_pe vx vy vz
  fix      	3 all npt temp 0.01 0.001 0.15 tri 0.0 0.0 1.5
  run           10000						#Try different values
Per MPI rank memory allocation (min/avg/max) = 4.569 | 4.569 | 4.569 Mbytes
Step Temp E_pair E_mol TotEng Press Volume 
40000000    1.5499146   -2.2423245            0  -0.69705961     20.34121    416.66667 
40010000  0.001052744   -3.8700799            0   -3.8690303 -0.00080181091    434.11498 
Loop time of 0.454374 on 8 procs for 10000 steps with 500 atoms

Performance: 5704546.700 tau/day, 22008.282 timesteps/s
99.4% CPU use with 8 MPI tasks x 1 OpenMP threads

MPI task timing breakdown:
Section |  min time  |  avg time  |  max time  |%varavg| %total
---------------------------------------------------------------
Pair    | 0.1673     | 0.17455    | 0.18677    |   1.4 | 38.42
Neigh   | 0.00051594 | 0.00054863 | 0.00058174 |   0.0 |  0.12
Comm    | 0.091527   | 0.1005     | 0.109      |   1.9 | 22.12
Output  | 0.0033798  | 0.0038342  | 0.0041859  |   0.4 |  0.84
Modify  | 0.14467    | 0.14709    | 0.15185    |   0.7 | 32.37
Other   |            | 0.02785    |            |       |  6.13

Nlocal:    62.5 ave 66 max 61 min
Histogram: 3 0 3 0 0 0 0 0 1 1
Nghost:    255.875 ave 260 max 254 min
Histogram: 2 3 0 1 0 0 1 0 0 1
Neighs:    1998.5 ave 2172 max 1943 min
Histogram: 5 1 0 0 0 0 1 0 0 1

Total # of neighbors = 15988
Ave neighs/atom = 31.976
Neighbor list builds = 7
Dangerous builds = 1
  unfix         3
  undump	mydump1

  dump          mydump2 all custom 50000 md_min.*.lammpstrj id type x y z c_peratom_pe vx vy vz
  fix           4 all box/relax tri 0.0
  min_style	cg
  min_modify	line quadratic
  minimize	1.0e-10 1.0e-10 100000 100000
WARNING: Using 'neigh_modify every 1 delay 0 check yes' setting during minimization (../min.cpp:168)
Per MPI rank memory allocation (min/avg/max) = 4.424 | 4.424 | 4.424 Mbytes
Step Temp E_pair E_mol TotEng Press Volume 
40010000  0.001052744   -3.8700799            0   -3.8690303 -0.00080181091    434.11498 
40010010  0.001052744   -3.8702969            0   -3.8692473 0.0099392457    434.05039 
Loop time of 0.00360641 on 8 procs for 10 steps with 500 atoms

90.1% CPU use with 8 MPI tasks x 1 OpenMP threads

Minimization stats:
  Stopping criterion = linesearch alpha is zero
  Energy initial, next-to-last, final = 
        -3.87007991615     -3.87029686366     -3.87029686366
  Force two-norm initial, final = 11.8372 11.5092
  Force max component initial, final = 1.88742 3.81286
  Final line search alpha, max atom move = 2.56123e-08 9.76563e-08
  Iterations, force evaluations = 10 35

MPI task timing breakdown:
Section |  min time  |  avg time  |  max time  |%varavg| %total
---------------------------------------------------------------
Pair    | 0.00088787 | 0.00093618 | 0.0010014  |   0.0 | 25.96
Neigh   | 0          | 0          | 0          |   0.0 |  0.00
Comm    | 0.00035048 | 0.00040323 | 0.00045443 |   0.0 | 11.18
Output  | 0          | 0          | 0          |   0.0 |  0.00
Modify  | 0          | 0          | 0          |   0.0 |  0.00
Other   |            | 0.002267   |            |       | 62.86

Nlocal:    62.5 ave 67 max 59 min
Histogram: 1 0 1 3 0 1 1 0 0 1
Nghost:    256.875 ave 264 max 252 min
Histogram: 3 0 0 1 1 0 2 0 0 1
Neighs:    2001.25 ave 2199 max 1894 min
Histogram: 1 1 3 0 1 1 0 0 0 1

Total # of neighbors = 16010
Ave neighs/atom = 32.02
Neighbor list builds = 0
Dangerous builds = 0
  unfix         4
  undump	mydump2

  print		'$b $h $c $f $g $j ${c_rate}' append out_AB_cooling.dat
1.6 0.00105274399844293 -3.87029686366008 434.050388490895 1.15193998959061 0.00993924565142423 3.33333333333333e-06

 # reload MD
  clear
  using 1 OpenMP thread(s) per MPI task
  read_restart    temp.rest
  restoring atom style atomic from restart
  triclinic box = (0 0 -5) to (20.4124 20.4124 5) with tilt (0 0 0)
  4 by 2 by 1 MPI processor grid
  restoring pair style lj/cut from restart
  500 atoms
  read_restart CPU = 0.000920057 secs
  include         pot.mod
#LJ Potential for binary glass
pair_style	lj/cut 2.5
pair_coeff	1 1 1.0 1.0 2.5		#e_AA=1.0 , sigma_AA=1.0, rc_AA=2.5*e_AA=2.5
pair_coeff	1 2 1.5 0.8 2.0		#e_AB=1.5 , sigma_AB=0.8, rc_AB=2.5*e_AB=2.0
pair_coeff	2 2 0.5 0.88 2.2	#e_AB=0.5 , sigma_BB=0.88, rc_BB=2.5*e_BB=2.2

neighbor        2.0 bin
neigh_modify    every 1 check yes






next            d
jump            in.binary_loop lcycle
  variable	a equal (2.0-(($d-1)*${T_step}))
  variable	a equal (2.0-((9-1)*${T_step}))
  variable	a equal (2.0-((9-1)*0.05))
  variable	b equal (2.0-(($d)*${T_step}))
  variable	b equal (2.0-((9)*${T_step}))
  variable	b equal (2.0-((9)*0.05))
  variable	t_step equal ($d-1)*${cool_run}
  variable	t_step equal (9-1)*${cool_run}
  variable	t_step equal (9-1)*5000000
  reset_timestep	${t_step}
  reset_timestep	40000000
  print		"Loop number = $d; Temperature = $a K to $b K"
Loop number = 9; Temperature = 1.6 K to 1.55 K

  compute	  peratom_pe all pe/atom
  dump            mydump all custom 5000000 md.*.lammpstrj id type x y z c_peratom_pe vx vy vz

  fix		1 all nvt temp $a $b 0.15 #iso 0.0 0.0 1.5
  fix		1 all nvt temp 1.6 $b 0.15 
  fix		1 all nvt temp 1.6 1.55 0.15 
  run		${cool_run}
  run		5000000
Neighbor list info ...
  update every 1 steps, delay 10 steps, check yes
  max neighbors/atom: 2000, page size: 100000
  master list distance cutoff = 4.5
  ghost atom cutoff = 4.5
  binsize = 2.25, bins = 10 10 5
  1 neighbor lists, perpetual/occasional/extra = 1 0 0
  (1) pair lj/cut, perpetual
      attributes: half, newton on
      pair build: half/bin/newton/tri
      stencil: half/bin/2d/newton/tri
      bin: standard
Per MPI rank memory allocation (min/avg/max) = 4.18 | 4.18 | 4.18 Mbytes
Step Temp E_pair E_mol TotEng Press 
40000000    1.5499146   -2.2423245            0  -0.69705961     20.34121 
45000000    1.4599201   -2.3617277            0  -0.90618736    19.079774 
Loop time of 173.914 on 8 procs for 5000000 steps with 500 atoms

Performance: 7451968.055 tau/day, 28749.877 timesteps/s
99.2% CPU use with 8 MPI tasks x 1 OpenMP threads

MPI task timing breakdown:
Section |  min time  |  avg time  |  max time  |%varavg| %total
---------------------------------------------------------------
Pair    | 90.052     | 90.577     | 91.367     |   4.4 | 52.08
Neigh   | 1.373      | 1.4603     | 1.4894     |   2.9 |  0.84
Comm    | 49.736     | 50.366     | 51.181     |   6.7 | 28.96
Output  | 0.001842   | 0.0018511  | 0.0019069  |   0.0 |  0.00
Modify  | 19.101     | 19.698     | 20.532     |  10.4 | 11.33
Other   |            | 11.81      |            |       |  6.79

Nlocal:    62.5 ave 67 max 60 min
Histogram: 1 3 2 0 0 0 0 0 1 1
Nghost:    263 ave 266 max 261 min
Histogram: 1 0 4 0 0 0 1 0 1 1
Neighs:    2091.12 ave 2288 max 1959 min
Histogram: 1 2 2 1 0 0 0 0 0 2

Total # of neighbors = 16729
Ave neighs/atom = 33.458
Neighbor list builds = 18533
Dangerous builds = 0
  unfix		1
  undump 	 mydump
  # save MD configuration
  write_restart	temp.rest
  write_data	temp.*.dat


  #find energy minimum
  variable	c equal pe
  variable	f equal vol
  variable	g equal density
  variable      h equal temp
  variable      j equal press
  variable	c_rate equal ${T_step}/(${cool_run}*${dt})
  variable	c_rate equal 0.05/(${cool_run}*${dt})
  variable	c_rate equal 0.05/(5000000*${dt})
  variable	c_rate equal 0.05/(5000000*0.003)
# Compute State

  dump          mydump1 all custom 5000 md_state.*.lammpstrj id type x y z c_peratom_pe vx vy vz
  fix      	3 all npt temp 0.01 0.001 0.15 tri 0.0 0.0 1.5
  run           10000						#Try different values
Per MPI rank memory allocation (min/avg/max) = 4.569 | 4.569 | 4.569 Mbytes
Step Temp E_pair E_mol TotEng Press Volume 
45000000    1.4599201   -2.3617277            0  -0.90618736    19.079774    416.66667 
45010000 0.0011129997     -3.85076            0   -3.8496504 -0.00049871887    436.46126 
Loop time of 0.453716 on 8 procs for 10000 steps with 500 atoms

Performance: 5712829.892 tau/day, 22040.239 timesteps/s
99.1% CPU use with 8 MPI tasks x 1 OpenMP threads

MPI task timing breakdown:
Section |  min time  |  avg time  |  max time  |%varavg| %total
---------------------------------------------------------------
Pair    | 0.15853    | 0.17333    | 0.18444    |   2.0 | 38.20
Neigh   | 0.00042057 | 0.00046527 | 0.00050092 |   0.0 |  0.10
Comm    | 0.090719   | 0.10033    | 0.11618    |   2.4 | 22.11
Output  | 0.0027959  | 0.0031675  | 0.003515   |   0.4 |  0.70
Modify  | 0.14337    | 0.14739    | 0.15073    |   0.6 | 32.49
Other   |            | 0.02903    |            |       |  6.40

Nlocal:    62.5 ave 66 max 59 min
Histogram: 1 0 2 0 0 3 0 1 0 1
Nghost:    255.375 ave 259 max 252 min
Histogram: 2 1 0 0 1 1 0 1 0 2
Neighs:    1988.62 ave 2102 max 1820 min
Histogram: 1 0 0 1 1 0 1 2 1 1

Total # of neighbors = 15909
Ave neighs/atom = 31.818
Neighbor list builds = 6
Dangerous builds = 1
  unfix         3
  undump	mydump1

  dump          mydump2 all custom 50000 md_min.*.lammpstrj id type x y z c_peratom_pe vx vy vz
  fix           4 all box/relax tri 0.0
  min_style	cg
  min_modify	line quadratic
  minimize	1.0e-10 1.0e-10 100000 100000
WARNING: Using 'neigh_modify every 1 delay 0 check yes' setting during minimization (../min.cpp:168)
Per MPI rank memory allocation (min/avg/max) = 4.424 | 4.424 | 4.424 Mbytes
Step Temp E_pair E_mol TotEng Press Volume 
45010000 0.0011129997     -3.85076            0   -3.8496504 -0.00049871887    436.46126 
45010008 0.0011129997   -3.8508743            0   -3.8497646 0.0060735545    436.41995 
Loop time of 0.004107 on 8 procs for 8 steps with 500 atoms

84.3% CPU use with 8 MPI tasks x 1 OpenMP threads

Minimization stats:
  Stopping criterion = linesearch alpha is zero
  Energy initial, next-to-last, final = 
        -3.85076001148     -3.85087425938     -3.85087425938
  Force two-norm initial, final = 13.644 12.7944
  Force max component initial, final = 1.89585 3.2209
  Final line search alpha, max atom move = 3.03195e-08 9.76563e-08
  Iterations, force evaluations = 8 44

MPI task timing breakdown:
Section |  min time  |  avg time  |  max time  |%varavg| %total
---------------------------------------------------------------
Pair    | 0.0010512  | 0.0011667  | 0.0012596  |   0.2 | 28.41
Neigh   | 0          | 0          | 0          |   0.0 |  0.00
Comm    | 0.00039291 | 0.00046906 | 0.00060225 |   0.0 | 11.42
Output  | 0          | 0          | 0          |   0.0 |  0.00
Modify  | 0          | 0          | 0          |   0.0 |  0.00
Other   |            | 0.002471   |            |       | 60.17

Nlocal:    62.5 ave 66 max 58 min
Histogram: 1 0 0 2 0 0 2 2 0 1
Nghost:    254.25 ave 258 max 249 min
Histogram: 1 1 0 1 0 0 1 1 2 1
Neighs:    1989.88 ave 2104 max 1815 min
Histogram: 1 0 0 1 1 0 0 4 0 1

Total # of neighbors = 15919
Ave neighs/atom = 31.838
Neighbor list builds = 0
Dangerous builds = 0
  unfix         4
  undump	mydump2

  print		'$b $h $c $f $g $j ${c_rate}' append out_AB_cooling.dat
1.55 0.00111299968089416 -3.85087425937626 436.419945921124 1.14568549094309 0.00607355452503275 3.33333333333333e-06

 # reload MD
  clear
  using 1 OpenMP thread(s) per MPI task
  read_restart    temp.rest
  restoring atom style atomic from restart
  triclinic box = (0 0 -5) to (20.4124 20.4124 5) with tilt (0 0 0)
  4 by 2 by 1 MPI processor grid
  restoring pair style lj/cut from restart
  500 atoms
  read_restart CPU = 0.00124002 secs
  include         pot.mod
#LJ Potential for binary glass
pair_style	lj/cut 2.5
pair_coeff	1 1 1.0 1.0 2.5		#e_AA=1.0 , sigma_AA=1.0, rc_AA=2.5*e_AA=2.5
pair_coeff	1 2 1.5 0.8 2.0		#e_AB=1.5 , sigma_AB=0.8, rc_AB=2.5*e_AB=2.0
pair_coeff	2 2 0.5 0.88 2.2	#e_AB=0.5 , sigma_BB=0.88, rc_BB=2.5*e_BB=2.2

neighbor        2.0 bin
neigh_modify    every 1 check yes






next            d
jump            in.binary_loop lcycle
  variable	a equal (2.0-(($d-1)*${T_step}))
  variable	a equal (2.0-((10-1)*${T_step}))
  variable	a equal (2.0-((10-1)*0.05))
  variable	b equal (2.0-(($d)*${T_step}))
  variable	b equal (2.0-((10)*${T_step}))
  variable	b equal (2.0-((10)*0.05))
  variable	t_step equal ($d-1)*${cool_run}
  variable	t_step equal (10-1)*${cool_run}
  variable	t_step equal (10-1)*5000000
  reset_timestep	${t_step}
  reset_timestep	45000000
  print		"Loop number = $d; Temperature = $a K to $b K"
Loop number = 10; Temperature = 1.55 K to 1.5 K

  compute	  peratom_pe all pe/atom
  dump            mydump all custom 5000000 md.*.lammpstrj id type x y z c_peratom_pe vx vy vz

  fix		1 all nvt temp $a $b 0.15 #iso 0.0 0.0 1.5
  fix		1 all nvt temp 1.55 $b 0.15 
  fix		1 all nvt temp 1.55 1.5 0.15 
  run		${cool_run}
  run		5000000
Neighbor list info ...
  update every 1 steps, delay 10 steps, check yes
  max neighbors/atom: 2000, page size: 100000
  master list distance cutoff = 4.5
  ghost atom cutoff = 4.5
  binsize = 2.25, bins = 10 10 5
  1 neighbor lists, perpetual/occasional/extra = 1 0 0
  (1) pair lj/cut, perpetual
      attributes: half, newton on
      pair build: half/bin/newton/tri
      stencil: half/bin/2d/newton/tri
      bin: standard
Per MPI rank memory allocation (min/avg/max) = 4.18 | 4.18 | 4.18 Mbytes
Step Temp E_pair E_mol TotEng Press 
45000000    1.4599201   -2.3617277            0  -0.90618736    19.079774 
50000000    1.4113172   -2.3167098            0  -0.90962659    19.223043 
Loop time of 174.106 on 8 procs for 5000000 steps with 500 atoms

Performance: 7443720.362 tau/day, 28718.057 timesteps/s
99.1% CPU use with 8 MPI tasks x 1 OpenMP threads

MPI task timing breakdown:
Section |  min time  |  avg time  |  max time  |%varavg| %total
---------------------------------------------------------------
Pair    | 89.215     | 90.381     | 91.709     |   8.0 | 51.91
Neigh   | 1.3091     | 1.3998     | 1.4361     |   3.1 |  0.80
Comm    | 48.884     | 50.636     | 52.028     |  16.2 | 29.08
Output  | 0.001878   | 0.0018868  | 0.0019429  |   0.0 |  0.00
Modify  | 19.006     | 19.918     | 21.952     |  21.8 | 11.44
Other   |            | 11.77      |            |       |  6.76

Nlocal:    62.5 ave 67 max 60 min
Histogram: 2 1 1 0 2 1 0 0 0 1
Nghost:    264 ave 268 max 256 min
Histogram: 1 0 1 0 0 0 1 1 1 3
Neighs:    2091.62 ave 2296 max 1975 min
Histogram: 1 1 2 1 1 1 0 0 0 1

Total # of neighbors = 16733
Ave neighs/atom = 33.466
Neighbor list builds = 17729
Dangerous builds = 0
  unfix		1
  undump 	 mydump
  # save MD configuration
  write_restart	temp.rest
  write_data	temp.*.dat


  #find energy minimum
  variable	c equal pe
  variable	f equal vol
  variable	g equal density
  variable      h equal temp
  variable      j equal press
  variable	c_rate equal ${T_step}/(${cool_run}*${dt})
  variable	c_rate equal 0.05/(${cool_run}*${dt})
  variable	c_rate equal 0.05/(5000000*${dt})
  variable	c_rate equal 0.05/(5000000*0.003)
# Compute State

  dump          mydump1 all custom 5000 md_state.*.lammpstrj id type x y z c_peratom_pe vx vy vz
  fix      	3 all npt temp 0.01 0.001 0.15 tri 0.0 0.0 1.5
  run           10000						#Try different values
Per MPI rank memory allocation (min/avg/max) = 4.569 | 4.569 | 4.569 Mbytes
Step Temp E_pair E_mol TotEng Press Volume 
50000000    1.4113172   -2.3167098            0  -0.90962659    19.223043    416.66667 
50010000 0.0009929038   -3.8387523            0   -3.8377623 -0.0059016733    435.65047 
Loop time of 0.447829 on 8 procs for 10000 steps with 500 atoms

Performance: 5787928.033 tau/day, 22329.969 timesteps/s
99.1% CPU use with 8 MPI tasks x 1 OpenMP threads

MPI task timing breakdown:
Section |  min time  |  avg time  |  max time  |%varavg| %total
---------------------------------------------------------------
Pair    | 0.16335    | 0.17363    | 0.18193    |   1.3 | 38.77
Neigh   | 0.00044584 | 0.00046507 | 0.0004909  |   0.0 |  0.10
Comm    | 0.085296   | 0.096801   | 0.10911    |   2.6 | 21.62
Output  | 0.0030601  | 0.0034585  | 0.003809   |   0.4 |  0.77
Modify  | 0.14201    | 0.14586    | 0.15261    |   1.0 | 32.57
Other   |            | 0.02762    |            |       |  6.17

Nlocal:    62.5 ave 65 max 59 min
Histogram: 1 0 0 1 0 2 1 0 2 1
Nghost:    257.125 ave 265 max 250 min
Histogram: 1 0 2 0 2 1 0 0 1 1
Neighs:    1995.62 ave 2081 max 1863 min
Histogram: 1 0 0 0 3 0 0 2 0 2

Total # of neighbors = 15965
Ave neighs/atom = 31.93
Neighbor list builds = 6
Dangerous builds = 1
  unfix         3
  undump	mydump1

  dump          mydump2 all custom 50000 md_min.*.lammpstrj id type x y z c_peratom_pe vx vy vz
  fix           4 all box/relax tri 0.0
  min_style	cg
  min_modify	line quadratic
  minimize	1.0e-10 1.0e-10 100000 100000
WARNING: Using 'neigh_modify every 1 delay 0 check yes' setting during minimization (../min.cpp:168)
Per MPI rank memory allocation (min/avg/max) = 4.424 | 4.424 | 4.424 Mbytes
Step Temp E_pair E_mol TotEng Press Volume 
50010000 0.0009929038   -3.8387523            0   -3.8377623 -0.0059016733    435.65047 
50010050 0.0009929038    -3.839264            0   -3.8382741 0.0013743404    435.56783 
Loop time of 0.00579944 on 8 procs for 50 steps with 500 atoms

98.1% CPU use with 8 MPI tasks x 1 OpenMP threads

Minimization stats:
  Stopping criterion = linesearch alpha is zero
  Energy initial, next-to-last, final = 
        -3.83875227254     -3.83926400499     -3.83926400499
  Force two-norm initial, final = 13.4342 4.21322
  Force max component initial, final = 5.47937 0.546661
  Final line search alpha, max atom move = 1.78641e-07 9.76563e-08
  Iterations, force evaluations = 50 74

MPI task timing breakdown:
Section |  min time  |  avg time  |  max time  |%varavg| %total
---------------------------------------------------------------
Pair    | 0.0018597  | 0.0018978  | 0.0019634  |   0.1 | 32.72
[...]
  fix      	3 all npt temp 0.01 0.001 0.15 tri 0.0 0.0 1.5
  run           10000						#Try different values
Per MPI rank memory allocation (min/avg/max) = 4.196 | 4.196 | 4.196 Mbytes
Step Temp E_pair E_mol TotEng Press Volume 
185000000   0.14812491   -3.7601326            0   -3.6124521    4.1002957    416.66667 
185010000 0.0010462684   -3.9326529            0   -3.9316098   0.01042855    428.15332 
Loop time of 0.51829 on 8 procs for 10000 steps with 500 atoms

Performance: 5001057.317 tau/day, 19294.203 timesteps/s
95.0% CPU use with 8 MPI tasks x 1 OpenMP threads

MPI task timing breakdown:
Section |  min time  |  avg time  |  max time  |%varavg| %total
---------------------------------------------------------------
Pair    | 0.1633     | 0.17368    | 0.18143    |   1.5 | 33.51
Neigh   | 6.8903e-05 | 7.7069e-05 | 8.1062e-05 |   0.0 |  0.01
Comm    | 0.10767    | 0.12032    | 0.13332    |   2.2 | 23.21
Output  | 0.017475   | 0.017953   | 0.018347   |   0.2 |  3.46
Modify  | 0.16499    | 0.17311    | 0.18553    |   1.8 | 33.40
Other   |            | 0.03315    |            |       |  6.40

Nlocal:    62.5 ave 65 max 58 min
Histogram: 1 0 1 0 0 1 0 2 1 2
Nghost:    252.25 ave 255 max 248 min
Histogram: 1 1 0 0 0 2 0 0 3 1
Neighs:    1957.62 ave 2036 max 1793 min
Histogram: 1 0 0 0 1 0 1 1 3 1

Total # of neighbors = 15661
Ave neighs/atom = 31.322
Neighbor list builds = 1
Dangerous builds = 1
  unfix         3
  undump	mydump1

  dump          mydump2 all custom 50000 md_min.*.lammpstrj id type x y z c_peratom_pe vx vy vz
  fix           4 all box/relax tri 0.0
  min_style	cg
  min_modify	line quadratic
  minimize	1.0e-10 1.0e-10 100000 100000
WARNING: Using 'neigh_modify every 1 delay 0 check yes' setting during minimization (../min.cpp:168)
Per MPI rank memory allocation (min/avg/max) = 4.051 | 4.051 | 4.051 Mbytes
Step Temp E_pair E_mol TotEng Press Volume 
185010000 0.0010462684   -3.9326529            0   -3.9316098   0.01042855    428.15332 
185010004 0.0010462684   -3.9326572            0    -3.931614 0.0068857218     428.1714 
Loop time of 0.00332832 on 8 procs for 4 steps with 500 atoms

88.6% CPU use with 8 MPI tasks x 1 OpenMP threads

Minimization stats:
  Stopping criterion = linesearch alpha is zero
  Energy initial, next-to-last, final = 
        -3.93265294476     -3.93265716891     -3.93265716891
  Force two-norm initial, final = 19.1926 18.5179
  Force max component initial, final = 6.02664 4.06409
  Final line search alpha, max atom move = 1.20145e-08 4.88281e-08
  Iterations, force evaluations = 4 27

MPI task timing breakdown:
Section |  min time  |  avg time  |  max time  |%varavg| %total
---------------------------------------------------------------
Pair    | 0.0006752  | 0.0007377  | 0.00078773 |   0.0 | 22.16
Neigh   | 0          | 0          | 0          |   0.0 |  0.00
Comm    | 0.00028515 | 0.00032884 | 0.00039411 |   0.0 |  9.88
Output  | 0          | 0          | 0          |   0.0 |  0.00
Modify  | 0          | 0          | 0          |   0.0 |  0.00
Other   |            | 0.002262   |            |       | 67.96

Nlocal:    62.5 ave 66 max 58 min
Histogram: 1 0 0 1 0 1 3 1 0 1
Nghost:    258.75 ave 262 max 255 min
Histogram: 1 0 1 0 2 1 0 1 1 1
Neighs:    2040.75 ave 2162 max 1860 min
Histogram: 1 0 0 0 0 3 0 3 0 1

Total # of neighbors = 16326
Ave neighs/atom = 32.652
Neighbor list builds = 0
Dangerous builds = 0
  unfix         4
  undump	mydump2

  print		'$b $h $c $f $g $j ${c_rate}' append out_AB_cooling.dat
0.15 0.00104626840516531 -3.93265716891057 428.17140449989 1.16775663845185 0.00688572179804497 3.33333333333333e-06

 # reload MD
  clear
  using 1 OpenMP thread(s) per MPI task
  read_restart    temp.rest
  restoring atom style atomic from restart
  triclinic box = (0 0 -5) to (20.4124 20.4124 5) with tilt (0 0 0)
  4 by 2 by 1 MPI processor grid
  restoring pair style lj/cut from restart
  500 atoms
  read_restart CPU = 0.00110102 secs
  include         pot.mod
#LJ Potential for binary glass
pair_style	lj/cut 2.5
pair_coeff	1 1 1.0 1.0 2.5		#e_AA=1.0 , sigma_AA=1.0, rc_AA=2.5*e_AA=2.5
pair_coeff	1 2 1.5 0.8 2.0		#e_AB=1.5 , sigma_AB=0.8, rc_AB=2.5*e_AB=2.0
pair_coeff	2 2 0.5 0.88 2.2	#e_AB=0.5 , sigma_BB=0.88, rc_BB=2.5*e_BB=2.2

neighbor        2.0 bin
neigh_modify    every 1 check yes






next            d
jump            in.binary_loop lcycle
  variable	a equal (2.0-(($d-1)*${T_step}))
  variable	a equal (2.0-((38-1)*${T_step}))
  variable	a equal (2.0-((38-1)*0.05))
  variable	b equal (2.0-(($d)*${T_step}))
  variable	b equal (2.0-((38)*${T_step}))
  variable	b equal (2.0-((38)*0.05))
  variable	t_step equal ($d-1)*${cool_run}
  variable	t_step equal (38-1)*${cool_run}
  variable	t_step equal (38-1)*5000000
  reset_timestep	${t_step}
  reset_timestep	185000000
  print		"Loop number = $d; Temperature = $a K to $b K"
Loop number = 38; Temperature = 0.15 K to 0.0999999999999999 K

  compute	  peratom_pe all pe/atom
  dump            mydump all custom 5000000 md.*.lammpstrj id type x y z c_peratom_pe vx vy vz

  fix		1 all nvt temp $a $b 0.15 #iso 0.0 0.0 1.5
  fix		1 all nvt temp 0.15 $b 0.15 
  fix		1 all nvt temp 0.15 0.0999999999999999 0.15 
  run		${cool_run}
  run		5000000
Neighbor list info ...
  update every 1 steps, delay 10 steps, check yes
  max neighbors/atom: 2000, page size: 100000
  master list distance cutoff = 4.5
  ghost atom cutoff = 4.5
  binsize = 2.25, bins = 10 10 5
  1 neighbor lists, perpetual/occasional/extra = 1 0 0
  (1) pair lj/cut, perpetual
      attributes: half, newton on
      pair build: half/bin/newton/tri
      stencil: half/bin/2d/newton/tri
      bin: standard
Per MPI rank memory allocation (min/avg/max) = 4.18 | 4.18 | 4.18 Mbytes
Step Temp E_pair E_mol TotEng Press 
185000000   0.14812491   -3.7601326            0   -3.6124521    4.1002957 
190000000  0.097543708   -3.8093136            0   -3.7120626    3.6373564 
Loop time of 163.839 on 8 procs for 5000000 steps with 500 atoms

Performance: 7910181.102 tau/day, 30517.674 timesteps/s
99.4% CPU use with 8 MPI tasks x 1 OpenMP threads

MPI task timing breakdown:
Section |  min time  |  avg time  |  max time  |%varavg| %total
---------------------------------------------------------------
Pair    | 79.938     | 86.887     | 90.552     |  41.2 | 53.03
Neigh   | 0          | 0          | 0          |   0.0 |  0.00
Comm    | 43.24      | 46.785     | 54.237     |  57.6 | 28.56
Output  | 0.001806   | 0.0018224  | 0.00193    |   0.1 |  0.00
Modify  | 17.275     | 18.401     | 19.314     |  15.3 | 11.23
Other   |            | 11.77      |            |       |  7.18

Nlocal:    62.5 ave 65 max 58 min
Histogram: 1 1 0 0 0 1 0 1 2 2
Nghost:    264.375 ave 270 max 257 min
Histogram: 1 0 0 1 0 2 2 0 1 1
Neighs:    2097.88 ave 2177 max 1928 min
Histogram: 1 0 0 1 0 0 1 0 3 2

Total # of neighbors = 16783
Ave neighs/atom = 33.566
Neighbor list builds = 0
Dangerous builds = 0
  unfix		1
  undump 	 mydump
  # save MD configuration
  write_restart	temp.rest
  write_data	temp.*.dat


  #find energy minimum
  variable	c equal pe
  variable	f equal vol
  variable	g equal density
  variable      h equal temp
  variable      j equal press
  variable	c_rate equal ${T_step}/(${cool_run}*${dt})
  variable	c_rate equal 0.05/(${cool_run}*${dt})
  variable	c_rate equal 0.05/(5000000*${dt})
  variable	c_rate equal 0.05/(5000000*0.003)
# Compute State

  dump          mydump1 all custom 5000 md_state.*.lammpstrj id type x y z c_peratom_pe vx vy vz
  fix      	3 all npt temp 0.01 0.001 0.15 tri 0.0 0.0 1.5
  run           10000						#Try different values
Per MPI rank memory allocation (min/avg/max) = 4.196 | 4.196 | 4.196 Mbytes
Step Temp E_pair E_mol TotEng Press Volume 
190000000  0.097543708   -3.8093136            0   -3.7120626    3.6373564    416.66667 
190010000 0.0010025809   -3.9321764            0   -3.9311769 0.0064741855    428.11372 
Loop time of 0.44817 on 8 procs for 10000 steps with 500 atoms

Performance: 5783520.335 tau/day, 22312.964 timesteps/s
99.3% CPU use with 8 MPI tasks x 1 OpenMP threads

MPI task timing breakdown:
Section |  min time  |  avg time  |  max time  |%varavg| %total
---------------------------------------------------------------
Pair    | 0.16164    | 0.17498    | 0.1832     |   1.5 | 39.04
Neigh   | 0.00013781 | 0.00015515 | 0.00016189 |   0.0 |  0.03
Comm    | 0.088496   | 0.098039   | 0.11174    |   2.2 | 21.88
Output  | 0.0029418  | 0.0034781  | 0.0039079  |   0.5 |  0.78
Modify  | 0.14093    | 0.14336    | 0.14627    |   0.5 | 31.99
Other   |            | 0.02815    |            |       |  6.28

Nlocal:    62.5 ave 65 max 58 min
Histogram: 1 0 0 0 1 1 0 2 2 1
Nghost:    260 ave 264 max 258 min
Histogram: 1 3 0 2 0 1 0 0 0 1
Neighs:    2036.38 ave 2118 max 1866 min
Histogram: 1 0 0 0 0 1 2 1 1 2

Total # of neighbors = 16291
Ave neighs/atom = 32.582
Neighbor list builds = 2
Dangerous builds = 0
  unfix         3
  undump	mydump1

  dump          mydump2 all custom 50000 md_min.*.lammpstrj id type x y z c_peratom_pe vx vy vz
  fix           4 all box/relax tri 0.0
  min_style	cg
  min_modify	line quadratic
  minimize	1.0e-10 1.0e-10 100000 100000
WARNING: Using 'neigh_modify every 1 delay 0 check yes' setting during minimization (../min.cpp:168)
Per MPI rank memory allocation (min/avg/max) = 4.051 | 4.051 | 4.051 Mbytes
Step Temp E_pair E_mol TotEng Press Volume 
190010000 0.0010025809   -3.9321764            0   -3.9311769 0.0064741855    428.11372 
190010004 0.0010025809   -3.9321844            0   -3.9311848 0.0030941195    428.13078 
Loop time of 0.00407407 on 8 procs for 4 steps with 500 atoms

81.9% CPU use with 8 MPI tasks x 1 OpenMP threads

Minimization stats:
  Stopping criterion = linesearch alpha is zero
  Energy initial, next-to-last, final = 
        -3.93217644309     -3.93218435198     -3.93218435198
  Force two-norm initial, final = 19.5573 18.6028
  Force max component initial, final = 7.44752 6.08242
  Final line search alpha, max atom move = 1.60555e-08 9.76563e-08
  Iterations, force evaluations = 4 23

MPI task timing breakdown:
Section |  min time  |  avg time  |  max time  |%varavg| %total
---------------------------------------------------------------
Pair    | 0.00058031 | 0.00062251 | 0.00066209 |   0.0 | 15.28
Neigh   | 0          | 0          | 0          |   0.0 |  0.00
Comm    | 0.00022554 | 0.00025624 | 0.00028872 |   0.0 |  6.29
Output  | 0          | 0          | 0          |   0.0 |  0.00
Modify  | 0          | 0          | 0          |   0.0 |  0.00
Other   |            | 0.003195   |            |       | 78.43

Nlocal:    62.5 ave 66 max 58 min
Histogram: 1 0 1 0 0 1 2 2 0 1
Nghost:    260 ave 264 max 258 min
Histogram: 2 2 0 1 0 2 0 0 0 1
Neighs:    2038.88 ave 2155 max 1859 min
Histogram: 1 0 0 0 1 1 2 1 1 1

Total # of neighbors = 16311
Ave neighs/atom = 32.622
Neighbor list builds = 0
Dangerous builds = 0
  unfix         4
  undump	mydump2

  print		'$b $h $c $f $g $j ${c_rate}' append out_AB_cooling.dat
0.0999999999999999 0.00100258086291787 -3.93218435197641 428.130784831306 1.1678674314369 0.00309411954190795 3.33333333333333e-06

 # reload MD
  clear
  using 1 OpenMP thread(s) per MPI task
  read_restart    temp.rest
  restoring atom style atomic from restart
  triclinic box = (0 0 -5) to (20.4124 20.4124 5) with tilt (0 0 0)
  4 by 2 by 1 MPI processor grid
  restoring pair style lj/cut from restart
  500 atoms
  read_restart CPU = 0.004498 secs
  include         pot.mod
#LJ Potential for binary glass
pair_style	lj/cut 2.5
pair_coeff	1 1 1.0 1.0 2.5		#e_AA=1.0 , sigma_AA=1.0, rc_AA=2.5*e_AA=2.5
pair_coeff	1 2 1.5 0.8 2.0		#e_AB=1.5 , sigma_AB=0.8, rc_AB=2.5*e_AB=2.0
pair_coeff	2 2 0.5 0.88 2.2	#e_AB=0.5 , sigma_BB=0.88, rc_BB=2.5*e_BB=2.2

neighbor        2.0 bin
neigh_modify    every 1 check yes






next            d
jump            in.binary_loop lcycle
  variable	a equal (2.0-(($d-1)*${T_step}))
  variable	a equal (2.0-((39-1)*${T_step}))
  variable	a equal (2.0-((39-1)*0.05))
  variable	b equal (2.0-(($d)*${T_step}))
  variable	b equal (2.0-((39)*${T_step}))
  variable	b equal (2.0-((39)*0.05))
  variable	t_step equal ($d-1)*${cool_run}
  variable	t_step equal (39-1)*${cool_run}
  variable	t_step equal (39-1)*5000000
  reset_timestep	${t_step}
  reset_timestep	190000000
  print		"Loop number = $d; Temperature = $a K to $b K"
Loop number = 39; Temperature = 0.0999999999999999 K to 0.0499999999999998 K

  compute	  peratom_pe all pe/atom
  dump            mydump all custom 5000000 md.*.lammpstrj id type x y z c_peratom_pe vx vy vz

  fix		1 all nvt temp $a $b 0.15 #iso 0.0 0.0 1.5
  fix		1 all nvt temp 0.0999999999999999 $b 0.15 
  fix		1 all nvt temp 0.0999999999999999 0.0499999999999998 0.15 
  run		${cool_run}
  run		5000000
Neighbor list info ...
  update every 1 steps, delay 10 steps, check yes
  max neighbors/atom: 2000, page size: 100000
  master list distance cutoff = 4.5
  ghost atom cutoff = 4.5
  binsize = 2.25, bins = 10 10 5
  1 neighbor lists, perpetual/occasional/extra = 1 0 0
  (1) pair lj/cut, perpetual
      attributes: half, newton on
      pair build: half/bin/newton/tri
      stencil: half/bin/2d/newton/tri
      bin: standard
Per MPI rank memory allocation (min/avg/max) = 4.18 | 4.18 | 4.18 Mbytes
Step Temp E_pair E_mol TotEng Press 
190000000  0.097543708   -3.8093136            0   -3.7120626    3.6373564 
195000000  0.052358202   -3.8578969            0   -3.8056958    3.0444571 
Loop time of 164.412 on 8 procs for 5000000 steps with 500 atoms

Performance: 7882638.534 tau/day, 30411.414 timesteps/s
99.3% CPU use with 8 MPI tasks x 1 OpenMP threads

MPI task timing breakdown:
Section |  min time  |  avg time  |  max time  |%varavg| %total
---------------------------------------------------------------
Pair    | 78.656     | 86.443     | 89.065     |  35.2 | 52.58
Neigh   | 0          | 0          | 0          |   0.0 |  0.00
Comm    | 43.822     | 47.126     | 56.136     |  53.3 | 28.66
Output  | 0.0018301  | 0.0018453  | 0.0019469  |   0.1 |  0.00
Modify  | 17.389     | 19.034     | 20.499     |  23.7 | 11.58
Other   |            | 11.81      |            |       |  7.18

Nlocal:    62.5 ave 65 max 58 min
Histogram: 1 0 0 0 1 1 0 2 2 1
Nghost:    263.625 ave 269 max 258 min
Histogram: 1 0 2 0 1 0 1 2 0 1
Neighs:    2095 ave 2152 max 1927 min
Histogram: 1 0 0 0 0 0 1 1 3 2

Total # of neighbors = 16760
Ave neighs/atom = 33.52
Neighbor list builds = 0
Dangerous builds = 0
  unfix		1
  undump 	 mydump
  # save MD configuration
  write_restart	temp.rest
  write_data	temp.*.dat


  #find energy minimum
  variable	c equal pe
  variable	f equal vol
  variable	g equal density
  variable      h equal temp
  variable      j equal press
  variable	c_rate equal ${T_step}/(${cool_run}*${dt})
  variable	c_rate equal 0.05/(${cool_run}*${dt})
  variable	c_rate equal 0.05/(5000000*${dt})
  variable	c_rate equal 0.05/(5000000*0.003)
# Compute State

  dump          mydump1 all custom 5000 md_state.*.lammpstrj id type x y z c_peratom_pe vx vy vz
  fix      	3 all npt temp 0.01 0.001 0.15 tri 0.0 0.0 1.5
  run           10000						#Try different values
Per MPI rank memory allocation (min/avg/max) = 4.196 | 4.196 | 4.196 Mbytes
Step Temp E_pair E_mol TotEng Press Volume 
195000000  0.052358202   -3.8578969            0   -3.8056958    3.0444571    416.66667 
195010000 0.0010261789    -3.932619            0   -3.9315959 0.0019499394    428.10685 
Loop time of 0.461594 on 8 procs for 10000 steps with 500 atoms

Performance: 5615329.541 tau/day, 21664.080 timesteps/s
98.6% CPU use with 8 MPI tasks x 1 OpenMP threads

MPI task timing breakdown:
Section |  min time  |  avg time  |  max time  |%varavg| %total
---------------------------------------------------------------
Pair    | 0.16483    | 0.17655    | 0.18493    |   1.5 | 38.25
Neigh   | 7.2002e-05 | 8.0615e-05 | 8.4877e-05 |   0.0 |  0.02
Comm    | 0.092017   | 0.10011    | 0.10981    |   1.7 | 21.69
Output  | 0.0027962  | 0.0036565  | 0.0042052  |   0.8 |  0.79
Modify  | 0.14493    | 0.15291    | 0.15762    |   1.0 | 33.13
Other   |            | 0.02828    |            |       |  6.13

Nlocal:    62.5 ave 65 max 58 min
Histogram: 1 0 0 0 1 2 0 1 1 2
Nghost:    259.375 ave 263 max 258 min
Histogram: 5 0 1 0 0 0 0 0 0 2
Neighs:    2034.75 ave 2117 max 1855 min
Histogram: 1 0 0 0 0 0 3 2 0 2

Total # of neighbors = 16278
Ave neighs/atom = 32.556
Neighbor list builds = 1
Dangerous builds = 0
  unfix         3
  undump	mydump1

  dump          mydump2 all custom 50000 md_min.*.lammpstrj id type x y z c_peratom_pe vx vy vz
  fix           4 all box/relax tri 0.0
  min_style	cg
  min_modify	line quadratic
  minimize	1.0e-10 1.0e-10 100000 100000
WARNING: Using 'neigh_modify every 1 delay 0 check yes' setting during minimization (../min.cpp:168)
Per MPI rank memory allocation (min/avg/max) = 4.051 | 4.051 | 4.051 Mbytes
Step Temp E_pair E_mol TotEng Press Volume 
195010000 0.0010261789    -3.932619            0   -3.9315959 0.0019499394    428.10685 
195010020 0.0010261789   -3.9330379            0   -3.9320148 0.0040941697    428.07596 
Loop time of 0.0794336 on 8 procs for 20 steps with 500 atoms

71.2% CPU use with 8 MPI tasks x 1 OpenMP threads

Minimization stats:
  Stopping criterion = linesearch alpha is zero
  Energy initial, next-to-last, final = 
        -3.93261898843     -3.93303785083     -3.93303785083
  Force two-norm initial, final = 18.0051 11.7595
  Force max component initial, final = 2.29945 1.32369
  Final line search alpha, max atom move = 3.68878e-08 4.88281e-08
  Iterations, force evaluations = 20 72

MPI task timing breakdown:
Section |  min time  |  avg time  |  max time  |%varavg| %total
---------------------------------------------------------------
Pair    | 0.0017629  | 0.0047846  | 0.025135   |  11.1 |  6.02
Neigh   | 0          | 0          | 0          |   0.0 |  0.00
Comm    | 0.00078821 | 0.019756   | 0.036641   |   8.3 | 24.87
Output  | 0          | 0          | 0          |   0.0 |  0.00
Modify  | 0          | 0          | 0          |   0.0 |  0.00
Other   |            | 0.05489    |            |       | 69.11

Nlocal:    62.5 ave 66 max 58 min
Histogram: 1 0 1 0 0 1 2 2 0 1
Nghost:    259.625 ave 263 max 257 min
Histogram: 1 1 0 3 0 1 0 0 1 1
Neighs:    2039.25 ave 2153 max 1858 min
Histogram: 1 0 0 0 1 0 3 2 0 1

Total # of neighbors = 16314
Ave neighs/atom = 32.628
Neighbor list builds = 0
Dangerous builds = 0
  unfix         4
  undump	mydump2

  print		'$b $h $c $f $g $j ${c_rate}' append out_AB_cooling.dat
0.0499999999999998 0.00102617889815186 -3.9330378508283 428.075955644289 1.16801701522212 0.00409416974501757 3.33333333333333e-06

 # reload MD
  clear
  using 1 OpenMP thread(s) per MPI task
  read_restart    temp.rest
  restoring atom style atomic from restart
  triclinic box = (0 0 -5) to (20.4124 20.4124 5) with tilt (0 0 0)
  4 by 2 by 1 MPI processor grid
  restoring pair style lj/cut from restart
  500 atoms
  read_restart CPU = 0.008008 secs
  include         pot.mod
#LJ Potential for binary glass
pair_style	lj/cut 2.5
pair_coeff	1 1 1.0 1.0 2.5		#e_AA=1.0 , sigma_AA=1.0, rc_AA=2.5*e_AA=2.5
pair_coeff	1 2 1.5 0.8 2.0		#e_AB=1.5 , sigma_AB=0.8, rc_AB=2.5*e_AB=2.0
pair_coeff	2 2 0.5 0.88 2.2	#e_AB=0.5 , sigma_BB=0.88, rc_BB=2.5*e_BB=2.2

neighbor        2.0 bin
neigh_modify    every 1 check yes






next            d
jump            in.binary_loop lcycle

write_restart   0_05K.rest
Neighbor list info ...
  update every 1 steps, delay 10 steps, check yes
  max neighbors/atom: 2000, page size: 100000
  master list distance cutoff = 4.5
  ghost atom cutoff = 4.5
  binsize = 2.25, bins = 10 10 5
  1 neighbor lists, perpetual/occasional/extra = 1 0 0
  (1) pair lj/cut, perpetual
      attributes: half, newton on
      pair build: half/bin/newton/tri
      stencil: half/bin/2d/newton/tri
      bin: standard
write_data      0_05K.dat


Total wall time: 1:51:52
