ITEM: TIMESTEP
100000
ITEM: NUMBER OF ATOMS
500
ITEM: BOX BOUNDS xy xz yz pp pp pp
-5.4430049430030847e-01 2.0869866802282250e+01 -8.6848215217260522e-02
-1.0674169272044255e-01 2.0519156215920503e+01 0.0000000000000000e+00
-5.0000000000000000e+00 5.0000000000000000e+00 0.0000000000000000e+00
ITEM: ATOMS id type x y z c_dispatom[1] c_dispatom[2] c_dispatom[3] c_dispatom[4] 
453 1 1.22378 9.39463 0 -0.241539 0.303842 0 0.388151 
129 1 3.34872 4.3237 0 -0.304598 -0.333594 0 0.451736 
351 1 1.60551 5.47757 0 0.440364 0.270257 0 0.516681 
483 1 3.80056 1.52828 0 0.169951 0.070724 0 0.18408 
55 2 4.80597 3.56566 0 0.464171 0.353059 0 0.583185 
8 1 0.537972 5.8816 0 0.474494 0.549539 0 0.726043 
319 2 0.110588 1.28697 0 -0.254447 0.13052 0 0.28597 
324 1 2.9648 0.841787 0 0.177515 -0.0584144 0 0.186879 
76 2 3.83235 0.554646 0 0.313769 0.29534 0 0.430902 
77 2 0.285408 3.13999 0 -0.658415 0.434008 0 0.78859 
321 1 4.40874 6.49463 0 0.732423 -0.114948 0 0.741388 
163 1 1.11633 7.52751 0 0.107286 0.0276449 0 0.11079 
481 1 2.18307 8.96056 0 -0.28834 -0.187298 0 0.343833 
103 1 1.1961 2.72132 0 -0.570918 0.508512 0 0.764547 
115 2 4.0387 2.44576 0 0.685044 0.264826 0 0.734451 
386 1 1.02882 1.69363 0 0.0857034 1.1064 0 1.10971 
109 1 2.1195 7.88674 0 0.299932 -0.121889 0 0.323753 
472 1 2.6118 5.13976 0 0.47737 -0.0214676 0 0.477853 
203 1 5.52169 0.0239907 0 0.0220156 -0.51243 0 0.512903 
211 1 -0.0151453 2.15667 0 -0.826622 0.308156 0 0.882193 
112 1 2.57846 6.90775 0 -0.108992 -0.313354 0 0.331768 
317 2 1.43888 8.45021 0 0.390444 0.148993 0 0.417906 
482 1 2.05954 2.12699 0 0.292445 0.920823 0 0.966146 
30 1 1.64286 4.40274 0 -0.141407 0.163874 0 0.21645 
61 1 3.94166 3.41196 0 0.392381 0.373355 0 0.541624 
141 1 2.20075 10.1195 0 -1.40975 0.680981 0 1.56561 
228 1 1.59336 6.53993 0 -0.0831396 -0.252557 0 0.26589 
452 1 4.68899 0.79164 0 0.094664 -0.5249 0 0.533368 
86 1 4.22306 7.59528 0 -0.0982292 0.0543187 0 0.112248 
73 1 3.20154 7.80476 0 -0.243272 -0.616646 0 0.662898 
223 1 3.30123 6.05771 0 0.56173 -0.0875822 0 0.568516 
255 2 2.82364 1.72489 0 0.277878 0.0213578 0 0.278697 
193 1 -0.0482552 4.88316 0 -0.159836 0.576696 0 0.598436 
93 1 -0.174225 6.88979 0 -0.738877 0.224685 0 0.772284 
122 1 4.32118 5.40749 0 -0.0381792 -0.304923 0 0.307304 
80 2 0.533467 9.98887 0 -0.107515 0.430504 0 0.443726 
416 2 1.35104 3.59508 0 -0.432708 0.511807 0 0.670211 
411 1 2.16938 3.28655 0 -0.547412 -0.446239 0 0.70625 
400 2 0.824661 5.04963 0 -0.0619673 0.64697 0 0.649931 
88 1 7.32902 0.0572534 0 -0.366453 -0.912818 0 0.983628 
216 2 5.14041 5.91822 0 0.609561 -0.683851 0 0.916088 
238 2 3.04178 3.48142 0 -0.616266 -0.343934 0 0.705743 
448 1 0.620051 4.06212 0 -0.363253 0.534878 0 0.646566 
365 1 3.13679 2.58721 0 0.469359 -0.0527858 0 0.472318 
154 2 2.32567 6.02711 0 0.422981 0.10205 0 0.435117 
277 2 3.50672 5.18546 0 0.068241 -0.281949 0 0.290089 
7 1 0.58576 8.468 0 0.204994 -0.189468 0 0.279143 
296 2 3.5376 6.95741 0 0.0936289 -0.449625 0 0.45927 
194 2 2.47234 4.21459 0 -0.351962 -0.553808 0 0.656187 
434 2 4.71588 1.67388 0 -0.254443 -0.29792 0 0.391788 
350 1 4.4581 4.36245 0 0.0173556 0.322247 0 0.322714 
271 1 2.28617 0.0566618 0 -0.0601733 1.17816 0 1.1797 
42 1 4.89607 2.66145 0 0.698694 0.3479 0 0.780517 
177 2 0.798459 6.74697 0 -0.230391 0.815415 0 0.847338 
137 2 3.00349 8.66228 0 0.304864 0.508767 0 0.593116 
387 1 3.24673 9.56029 0 -1.13365 0.685098 0 1.32459 
49 1 4.54078 9.48782 0 -0.0224078 -0.376399 0 0.377066 
18 2 6.38399 0.167536 0 -0.497621 -0.684361 0 0.846154 
85 1 5.9406 2.95745 0 0.861842 0.12045 0 0.870218 
461 1 5.35899 5.11577 0 0.256827 0.320804 0 0.410944 
380 2 1.36222 -0.00320741 0 0.109088 0.37859 0 0.393994 
1 1 0.791759 0.671794 0 1.77548 0.243884 0 1.79215 
245 1 1.89753 1.07601 0 -0.0797527 0.865608 0 0.869274 
435 2 6.76233 8.1281 0 -0.0889253 -0.372576 0 0.383041 
480 2 8.43863 5.26341 0 -1.37864 0.0808496 0 1.38101 
219 2 8.14907 1.75584 0 -0.51899 -0.335264 0 0.617861 
373 1 7.57592 5.24181 0 1.17954 -0.345342 0 1.22905 
281 1 9.28642 5.06266 0 -0.32682 -0.865184 0 0.924854 
181 1 6.0562 5.89491 0 0.638633 0.00762837 0 0.638678 
232 1 9.75651 3.17369 0 0.129753 -0.358295 0 0.381066 
315 2 7.83429 3.53156 0 -1.02844 -0.33057 0 1.08026 
173 1 9.95687 0.762963 0 -0.34293 -0.254087 0 0.426803 
476 2 9.19996 4.17037 0 -1.03084 -0.205401 0 1.0511 
447 1 5.43208 6.74259 0 0.0800142 -0.115558 0 0.140555 
438 2 6.3771 3.84808 0 0.363427 0.731198 0 0.816535 
432 1 3.87654 8.6071 0 -1.52642 -0.602655 0 1.64108 
295 2 9.54875 1.58396 0 0.12645 0.425883 0 0.444259 
307 1 8.98039 2.24547 0 -0.498478 0.226532 0 0.547537 
250 1 6.18335 8.79722 0 0.0562517 0.52961 0 0.532589 
242 1 9.76829 8.48718 0 0.076865 0.0486877 0 0.0909874 
257 2 8.19582 0.374606 0 -0.114937 -0.0530472 0 0.126588 
91 1 6.45146 1.00882 0 -0.502715 -0.604098 0 0.785912 
439 2 0.241696 7.62941 0 0.113375 0.0707979 0 0.133664 
3 1 -0.317129 0.252766 0 0.742442 1.10806 0 1.3338 
422 1 6.03316 7.61176 0 -0.314005 0.899137 0 0.95239 
293 1 8.69328 8.32422 0 0.0562268 0.633924 0 0.636413 
45 1 6.83456 2.09966 0 -0.0294373 -0.51728 0 0.518117 
205 1 9.28981 6.7839 0 0.187562 -0.0214838 0 0.188789 
489 1 6.11997 9.86479 0 -0.260184 0.649204 0 0.699401 
123 1 5.51525 4.01026 0 -0.0958025 0.134882 0 0.165442 
120 2 6.76482 5.46408 0 0.812174 0.659685 0 1.04633 
402 1 5.65892 1.81449 0 -0.30412 -0.382294 0 0.488505 
264 1 7.00026 3.18675 0 -1.03905 -0.804001 0 1.31379 
188 1 8.79357 1.14507 0 0.132329 -0.117248 0 0.1768 
259 2 9.873 9.42433 0 -0.173603 0.112266 0 0.206741 
202 1 7.90718 2.62044 0 -0.0820409 -0.341704 0 0.351415 
225 1 6.34228 4.73888 0 -0.294628 1.158 0 1.19489 
106 1 8.29673 6.15611 0 1.13433 1.50865 0 1.88752 
368 1 8.30767 4.39462 0 -1.13752 -0.0745143 0 1.13996 
304 1 7.60604 1.1047 0 -0.290077 -0.794372 0 0.845678 
116 2 6.33616 6.79149 0 -0.844552 0.0409772 0 0.845546 
425 1 9.03423 9.3479 0 -0.109839 0.109125 0 0.154832 
353 1 7.23327 7.37987 0 0.336881 -0.287341 0 0.44278 
2 1 8.31237 7.2617 0 0.307095 0.50549 0 0.591463 
186 1 7.15668 6.32174 0 -0.0964622 0.423435 0 0.434283 
320 2 7.85178 7.98306 0 0.127027 0.411432 0 0.430595 
419 2 9.16541 5.9101 0 1.3837 0.660065 0 1.53307 
389 1 8.72797 3.38962 0 -0.216498 0.527373 0 0.570082 
274 2 5.57102 0.882294 0 -0.493494 -0.232016 0 0.545314 
458 2 9.35655 7.7035 0 -0.172402 0.146595 0 0.226302 
309 1 10.0378 6.0511 0 1.58559 0.180627 0 1.59584 
25 1 7.83103 9.757 0 -0.278782 0.534457 0 0.602797 
167 1 7.33759 8.75018 0 -0.32836 0.332224 0 0.467111 
96 2 5.38153 9.44507 0 -0.440657 -0.448218 0 0.628552 
191 1 5.14761 8.46966 0 0.00124846 0.317246 0 0.317248 
360 2 8.22818 9.01414 0 -0.341944 0.483939 0 0.592557 
414 2 6.91986 9.55006 0 -0.30656 0.136197 0 0.335453 
337 2 5.12799 7.58816 0 -0.876523 0.178861 0 0.894586 
463 1 7.26986 4.18666 0 -1.33387 -0.789869 0 1.55019 
420 2 9.97098 2.35754 0 0.0594692 -0.402581 0 0.406949 
299 2 -0.223687 8.94619 0 1.87093 1.23138 0 2.2398 
338 2 -0.327919 3.91818 0 1.2888 0.651483 0 1.4441 
79 2 -0.323406 5.85028 0 1.14121 1.0375 0 1.54233 
403 1 -0.310845 9.78757 0 1.00167 1.64354 0 1.92473 
308 1 10.1383 4.23376 0 -0.528468 -0.823454 0 0.978445 
426 1 10.1489 7.3496 0 -0.071417 0.330573 0 0.3382 
254 2 3.94567 10.181 0 0.186802 -0.0931787 0 0.208752 
381 1 9.10707 0.136015 0 -0.240281 -0.232359 0 0.334254 
465 1 0.851194 16.8885 0 -0.222446 0.969445 0 0.994639 
227 1 3.97497 14.7153 0 -0.519518 0.0353648 0 0.52072 
369 1 2.06818 12.7598 0 -0.626928 0.302542 0 0.696111 
53 1 2.43886 13.8203 0 -1.18383 0.867271 0 1.46752 
206 1 9.91681 14.7631 0 -0.676191 1.30859 0 1.47297 
28 1 3.13606 17.3851 0 -0.532276 0.725998 0 0.900217 
33 1 0.0199213 16.1883 0 -1.50083 1.10166 0 1.86176 
231 1 1.22298 10.6504 0 -1.05709 0.244329 0 1.08496 
166 1 1.56705 11.7841 0 -0.197949 0.372513 0 0.421842 
165 1 4.25564 10.9842 0 0.183198 -0.0192137 0 0.184202 
249 1 2.64688 16.0161 0 -0.404062 0.240672 0 0.470307 
404 1 0.395808 17.9145 0 -0.892512 1.07366 0 1.39618 
352 1 1.45414 19.6297 0 -0.407421 1.15305 0 1.22291 
17 2 2.94139 12.9781 0 0.239215 1.32167 0 1.34315 
441 1 2.57342 15.0072 0 -1.00754 0.906554 0 1.35535 
298 2 4.1998 15.5823 0 -0.649954 0.252204 0 0.697171 
247 1 0.613633 15.2008 0 -1.11682 1.25068 0 1.67674 
143 1 4.36138 20.3596 0 0.0588046 -0.692737 0 0.695228 
83 1 0.135471 10.7605 0 -1.23812 0.642871 0 1.39507 
455 2 0.337087 13.1419 0 -0.743503 1.30792 0 1.50448 
184 1 2.10995 17.7701 0 -1.38745 0.0835191 0 1.38996 
260 2 3.53074 11.5255 0 -1.44017 0.18297 0 1.45175 
269 1 1.23951 13.4984 0 -0.422953 0.594218 0 0.729372 
378 2 3.32691 15.434 0 -0.271167 0.469239 0 0.541956 
340 2 1.16682 12.5844 0 -0.694918 0.405856 0 0.804755 
457 2 0.833966 16.0351 0 -1.3669 0.527446 0 1.46514 
401 1 3.24075 19.2441 0 -0.92756 -0.521043 0 1.06389 
23 1 3.66004 13.534 0 -1.10982 0.440923 0 1.1942 
39 2 0.743986 11.4674 0 -0.432314 0.522428 0 0.678105 
152 1 1.59846 15.6245 0 -1.12389 0.778395 0 1.36713 
40 2 -0.311722 18.4844 0 -1.83072 0.846551 0 2.01698 
392 1 2.62269 11.7839 0 -1.03079 -0.0544746 0 1.03223 
334 2 4.59605 16.455 0 -0.208082 0.303568 0 0.368038 
407 1 3.29502 20.3458 0 0.423396 0.105328 0 0.436301 
330 1 3.10898 10.7868 0 -0.0509705 -0.126814 0 0.136674 
138 2 -0.253717 19.6642 0 -0.694918 0.551876 0 0.887399 
229 1 0.329324 19.0396 0 -0.519794 0.697941 0 0.870234 
60 2 -0.241319 11.5826 0 -0.652716 1.05297 0 1.23886 
175 2 -0.0502825 17.1596 0 1.26404 0.119901 0 1.26971 
367 1 0.377022 12.2282 0 -0.0156135 0.896373 0 0.896509 
144 1 3.63896 12.3825 0 -1.04866 0.30008 0 1.09075 
375 2 -0.260147 15.3439 0 -0.753801 -0.0716746 0 0.757201 
284 1 0.467057 20.1948 0 -0.765753 0.898236 0 1.18034 
24 1 1.30881 18.5183 0 -0.982681 1.05261 0 1.44002 
409 1 6.98842 10.5486 0 -0.673152 0.421012 0 0.793968 
256 2 1.2602 17.6746 0 -1.68796 0.663197 0 1.81357 
160 2 3.19113 14.2767 0 -1.25744 0.397392 0 1.31874 
405 1 2.25016 18.9787 0 -0.723474 0.349788 0 0.803596 
490 1 0.370912 14.176 0 -0.441179 0.626149 0 0.765965 
417 2 2.54682 19.8199 0 -0.717096 0.294977 0 0.775395 
244 1 1.54481 14.5338 0 -1.23946 0.956327 0 1.56551 
316 2 2.86601 18.3664 0 -1.43926 0.477197 0 1.51631 
442 1 1.89194 16.7766 0 -0.236528 0.513175 0 0.565061 
11 1 3.73715 18.2161 0 -0.299651 -0.443364 0 0.535128 
22 1 3.65277 16.3628 0 -0.415753 0.730278 0 0.840331 
358 2 2.10532 11.0051 0 -0.829464 1.11467 0 1.38942 
124 1 5.44533 19.0042 0 0.441386 -0.0598928 0 0.445431 
486 1 10.0165 15.7929 0 -0.164376 1.33302 0 1.34311 
241 1 4.22565 17.2568 0 -0.402801 0.237303 0 0.467505 
311 1 6.01249 10.951 0 -0.671587 0.658022 0 0.940224 
38 2 9.06101 12.2098 0 -0.477865 0.469572 0 0.669964 
131 1 7.46397 13.2759 0 -0.297486 -0.0771201 0 0.30732 
27 1 4.63116 12.0761 0 -1.07388 0.12134 0 1.08071 
349 1 4.36627 19.2702 0 -0.787592 -0.713987 0 1.06305 
399 2 7.36695 15.9449 0 -0.625757 0.129081 0 0.638932 
155 2 6.52516 11.6631 0 -0.799645 0.741095 0 1.09025 
90 1 7.3381 19.5718 0 -0.0763798 -0.840498 0 0.843962 
234 2 4.93208 14.6717 0 -0.535458 -0.00609288 0 0.535493 
356 2 5.09591 19.822 0 -0.64866 0.59954 0 0.883294 
210 1 8.46862 16.2469 0 0.0460872 -0.381249 0 0.384025 
289 1 10.0115 12.3335 0 -0.389879 0.730661 0 0.828173 
233 1 6.21717 19.8216 0 -0.0106858 -0.581165 0 0.581263 
363 1 5.09167 15.5125 0 -0.608322 -0.24368 0 0.655313 
459 2 5.97905 15.646 0 -0.584243 0.0115095 0 0.584356 
433 1 6.92974 17.7713 0 0.228924 0.0806768 0 0.242724 
339 2 5.07214 11.2818 0 -0.761999 0.19367 0 0.786226 
185 1 10.1012 18.4341 0 0.572932 0.243259 0 0.622435 
161 1 7.37729 11.5486 0 -0.420816 -0.140795 0 0.443745 
294 2 7.4579 18.6619 0 0.481053 0.0300608 0 0.481991 
164 1 5.87537 14.7493 0 -0.429411 0.0309805 0 0.430527 
78 2 7.41761 12.4093 0 -0.742819 -0.16685 0 0.761327 
43 1 6.56829 18.7536 0 0.0192953 -0.587592 0 0.587909 
218 2 8.36621 13.3958 0 -0.0247259 -0.45505 0 0.455722 
391 1 7.61541 16.8825 0 -0.0500498 -0.326068 0 0.329887 
313 1 9.28357 19.6203 0 0.206037 0.372973 0 0.426098 
385 1 4.74282 18.255 0 -0.412715 0.246777 0 0.480866 
126 1 5.69354 11.9647 0 -0.895314 0.543228 0 1.04723 
487 1 6.51074 12.5992 0 -0.767762 0.147065 0 0.78172 
273 1 5.42276 13.0237 0 -0.821984 0.0127103 0 0.822082 
388 1 7.54634 14.3329 0 -0.860727 -0.523574 0 1.00746 
157 2 6.67114 14.3949 0 -1.08334 0.0173352 0 1.08348 
408 1 6.59789 16.2873 0 -0.523414 0.0151406 0 0.523633 
467 1 8.03147 17.8593 0 0.287585 -0.362035 0 0.462357 
258 2 7.88022 10.7935 0 -0.285997 -0.163754 0 0.32956 
301 1 6.81941 15.2673 0 -0.654745 0.0363308 0 0.655752 
484 1 9.5325 11.3957 0 0.404303 0.388487 0 0.560699 
470 1 9.44911 16.7328 0 -0.118653 -0.439708 0 0.455436 
125 1 8.72105 10.4147 0 0.0646264 0.246105 0 0.254449 
224 1 8.66137 14.2665 0 -0.612479 0.226786 0 0.653117 
189 1 8.28763 12.4898 0 -0.672918 -0.643922 0 0.931373 
148 1 5.81326 17.9307 0 -0.234576 -0.531589 0 0.581044 
454 2 9.29843 18.7426 0 0.794521 0.140825 0 0.806905 
82 1 7.97607 15.2638 0 -0.848106 -0.49768 0 0.983345 
327 1 9.18131 13.1091 0 -0.848585 0.577888 0 1.02667 
200 2 8.60354 17.0943 0 -0.678945 0.694085 0 0.970938 
286 1 8.45268 11.4321 0 -0.329477 -0.586618 0 0.672812 
10 1 4.69934 13.8831 0 -0.622754 0.000874421 0 0.622755 
59 2 5.13359 17.4082 0 -0.697376 -0.17389 0 0.718729 
451 1 8.25789 19.1012 0 0.690799 -0.320612 0 0.761574 
366 1 5.58889 16.6423 0 0.0353309 -0.120329 0 0.125408 
312 1 9.27645 17.8287 0 0.704421 0.211139 0 0.735383 
195 2 6.32906 17.144 0 -0.00655882 0.338859 0 0.338922 
199 2 5.53929 13.9387 0 -0.649888 -0.00201746 0 0.649891 
364 1 6.32738 13.6105 0 -0.710758 -0.413024 0 0.82205 
72 1 9.03112 15.319 0 -0.487738 0.218243 0 0.53434 
220 2 4.41225 12.9548 0 -0.938736 0.337708 0 0.997633 
325 1 8.20425 20.1595 0 -0.508307 0.052905 0 0.511052 
113 1 5.20159 10.3455 0 -0.0237007 -0.180456 0 0.182006 
396 2 9.46532 13.9295 0 -0.310136 0.587801 0 0.6646 
462 1 -0.472234 13.5333 0 -0.960496 1.05731 0 1.42845 
418 2 -0.500868 12.664 0 0.780751 0.967341 0 1.24311 
187 1 9.7607 10.2535 0 0.128054 0.149527 0 0.196866 
305 1 11.1486 3.79211 0 -0.0777735 -0.337955 0 0.346788 
65 1 15.2889 6.21559 0 0.125225 -0.518466 0 0.533375 
498 2 10.7677 6.60713 0 -0.154155 0.0262156 0 0.156368 
6 1 10.703 9.06491 0 -0.0830226 -1.01369 0 1.01709 
135 2 10.8117 0.469844 0 0.270448 0.27315 0 0.384386 
348 1 11.4354 1.09302 0 0.209182 0.324938 0 0.386447 
460 2 13.5018 5.67422 0 0.259451 -0.518494 0 0.579785 
280 2 10.9345 4.62908 0 -0.580707 -0.353296 0 0.679734 
32 1 10.8057 2.71228 0 0.0558523 -0.431726 0 0.435324 
287 1 10.8506 10.0942 0 -0.40297 -0.911903 0 0.996972 
204 1 12.7668 5.26956 0 -0.365966 -0.00670887 0 0.366027 
97 2 16.57 4.77274 0 0.180924 -0.607068 0 0.633454 
413 1 13.2901 8.14127 0 0.633944 -0.00644312 0 0.633976 
341 1 13.4187 9.19359 0 0.0603035 0.251155 0 0.258293 
479 2 11.8965 5.5107 0 -0.364297 0.246658 0 0.439946 
100 2 14.8352 6.94304 0 -0.0307318 -0.623512 0 0.624269 
354 2 12.771 4.41047 0 -0.220913 -0.103175 0 0.243819 
429 1 10.5862 1.65869 0 0.156171 -0.412867 0 0.441416 
47 1 13.6415 4.75226 0 -0.500554 -1.21338 0 1.31257 
428 1 15.3989 2.99973 0 0.292567 -0.433388 0 0.522896 
104 1 12.8555 6.317 0 0.477708 0.335569 0 0.583791 
226 1 11.5087 8.40846 0 0.827823 -0.316619 0 0.886306 
494 2 15.1095 3.8591 0 0.603276 -0.23902 0 0.648901 
5 1 12.3303 7.30031 0 -0.596249 0.258691 0 0.649949 
146 1 11.65 0.0328314 0 0.158503 0.359329 0 0.392735 
170 1 13.4219 1.97503 0 0.424394 -0.0162697 0 0.424705 
133 1 18.1487 9.36361 0 -0.250693 -0.909686 0 0.943597 
446 1 14.6424 4.5581 0 -0.192898 -0.452441 0 0.491847 
474 2 15.9915 2.30464 0 1.25107 -0.306707 0 1.28811 
359 2 13.2615 7.21397 0 -0.229808 -0.517531 0 0.56626 
58 2 13.6623 2.8155 0 0.330706 -0.00824492 0 0.330808 
128 1 14.171 7.50952 0 -0.049767 -1.77248 0 1.77318 
336 2 11.5115 9.46588 0 0.193879 0.171667 0 0.258956 
41 1 15.344 1.73368 0 1.25467 -0.34479 0 1.30118 
278 2 15.2902 5.21666 0 0.418599 -0.727067 0 0.838959 
300 2 11.4061 2.02669 0 0.129105 0.474796 0 0.492036 
46 1 11.6824 6.38469 0 -0.226099 -0.390221 0 0.450991 
68 1 20.5813 1.32499 0 0.513894 -0.167715 0 0.540569 
15 2 12.4142 8.21614 0 0.356387 0.646446 0 0.738176 
70 1 13.9102 6.49221 0 -0.325167 -1.65132 0 1.68303 
69 1 14.3527 3.41758 0 0.653794 -0.759378 0 1.00205 
151 1 11.8645 2.87941 0 0.334207 0.253235 0 0.419312 
344 1 11.0202 5.54412 0 -0.282148 -0.316289 0 0.423847 
240 2 12.8142 9.8305 0 0.317069 0.821629 0 0.880685 
496 2 13.283 1.14609 0 0.600183 -0.116383 0 0.611363 
464 1 12.3085 9.12262 0 0.680289 0.643244 0 0.936246 
168 1 11.2076 7.38067 0 0.0678282 -0.120751 0 0.138497 
473 1 14.4024 5.58831 0 0.353322 -1.55758 0 1.59715 
466 1 11.8469 4.63523 0 -0.28381 0.146005 0 0.319164 
12 1 12.2607 1.85321 0 0.165365 0.0455146 0 0.171514 
140 2 12.0358 3.7532 0 0.210434 0.288217 0 0.356864 
139 2 12.7049 2.61413 0 0.380546 0.0288033 0 0.381634 
371 1 12.8808 3.46583 0 0.176964 -0.0683125 0 0.189691 
283 1 12.5076 0.662374 0 0.359232 0.0131534 0 0.359473 
26 1 14.456 2.36485 0 0.393731 -0.847473 0 0.934471 
444 1 14.2207 1.1814 0 0.542332 0.0137786 0 0.542507 
436 2 13.6383 3.87065 0 -0.219476 -1.04453 0 1.06734 
114 2 14.1144 8.44919 0 -0.500537 -1.57131 0 1.6491 
398 2 14.4028 0.174981 0 0.404785 -0.134287 0 0.426479 
251 1 15.2063 0.623028 0 0.486745 -0.630192 0 0.796281 
182 1 15.4771 9.09386 0 -0.599512 -1.97074 0 2.05991 
397 2 15.9798 1.08593 0 0.727353 -0.762176 0 1.05354 
13 1 15.6718 7.17327 0 0.593795 -1.55318 0 1.66282 
89 1 13.5267 0.263094 0 0.420136 -0.111001 0 0.434552 
361 1 19.5625 1.85706 0 1.01128 -0.453145 0 1.10816 
95 2 16.413 9.21268 0 -0.410096 -1.40322 0 1.46192 
217 2 15.1212 9.92639 0 -0.745389 -1.93141 0 2.07025 
332 1 15.8091 4.37514 0 0.0430669 -0.430442 0 0.432591 
347 1 19.1733 3.98292 0 1.37885 1.08998 0 1.75764 
94 2 17.4911 1.18252 0 0.448716 -0.0135675 0 0.448921 
174 2 17.8802 4.15867 0 0.416791 -0.222531 0 0.472477 
48 1 20.7926 8.05292 0 0.931958 1.02477 0 1.38517 
63 1 18.5899 4.83803 0 0.431173 -0.061302 0 0.435509 
102 1 20.2216 9.02536 0 1.06595 0.453911 0 1.15857 
329 1 19.9385 0.406334 0 0.522581 -0.295823 0 0.600502 
87 1 16.6832 2.87529 0 0.332784 -0.361458 0 0.491322 
394 2 15.9621 0.221378 0 0.576772 -0.621712 0 0.848052 
430 1 17.0409 9.79079 0 -0.272899 -0.153336 0 0.313026 
333 1 17.8023 0.382002 0 -0.870715 0.31161 0 0.924795 
178 2 20.1667 9.91543 0 0.218398 0.858533 0 0.885877 
499 2 18.0987 8.49347 0 1.40959 -0.726967 0 1.58601 
252 1 16.9598 4.02549 0 0.288367 -0.262005 0 0.389618 
310 1 16.6074 1.70179 0 0.981867 -0.879875 0 1.31842 
74 2 17.6583 6.67359 0 -0.18621 0.957306 0 0.975248 
127 1 16.7457 7.03403 0 1.10394 -0.753529 0 1.3366 
198 2 16.1536 6.37552 0 0.168333 -0.515091 0 0.541899 
302 1 17.7698 3.2387 0 -0.216396 -0.529815 0 0.572303 
159 2 16.8862 7.85878 0 0.271783 -0.252143 0 0.370732 
282 1 18.4121 1.33002 0 0.741508 0.662368 0 0.994266 
346 1 16.7654 0.626665 0 0.651621 -0.846605 0 1.06834 
488 1 18.9181 0.259724 0 0.346375 -0.931226 0 0.993558 
4 1 19.2591 9.60403 0 1.17759 0.387872 0 1.23983 
21 1 17.1696 8.70265 0 0.82374 -1.30955 0 1.54708 
56 2 20.369 7.25686 0 0.104813 1.18631 0 1.19093 
142 1 18.1586 5.91111 0 -0.418994 -0.258959 0 0.492561 
150 1 19.0509 8.56699 0 1.66129 0.0521434 0 1.6621 
172 1 17.5129 4.97683 0 0.352243 -0.176709 0 0.394083 
261 1 18.6032 2.36855 0 0.985731 0.616045 0 1.1624 
145 1 20.3079 5.29177 0 0.777044 1.20015 0 1.42974 
318 2 16.1218 3.53334 0 0.191175 -0.459065 0 0.497281 
117 2 19.4048 6.56412 0 0.419215 -0.307713 0 0.520027 
443 1 20.1673 4.26209 0 1.25038 0.91339 0 1.54846 
209 1 15.0023 8.08944 0 -0.346612 -1.58499 0 1.62244 
230 1 16.1071 8.22282 0 0.0685 -0.437143 0 0.442477 
450 1 14.4733 9.33368 0 -0.797039 -1.28212 0 1.50967 
71 1 16.0644 5.52385 0 0.368544 -0.313297 0 0.483714 
54 2 19.2534 1.0833 0 -0.00505561 -0.605728 0 0.605749 
421 1 18.545 6.91823 0 0.917228 0.306221 0 0.966994 
192 1 19.5162 7.44289 0 1.17082 -0.133995 0 1.17846 
379 2 20.4429 2.21917 0 -0.987814 0.0263653 0 0.988166 
362 1 17.7353 7.65282 0 1.06304 0.374949 0 1.12723 
158 2 10.5553 8.17748 0 0.219995 0.273048 0 0.350646 
335 2 18.6495 7.83159 0 1.23423 0.137752 0 1.24189 
9 1 19.6131 2.97754 0 0.027281 0.527015 0 0.527721 
424 1 17.6227 2.05527 0 0.817547 -0.16942 0 0.834916 
156 2 18.7314 3.24883 0 1.70022 -0.299516 0 1.7264 
50 1 20.2211 6.37676 0 0.736593 0.199264 0 0.76307 
449 1 17.032 6.02407 0 0.422358 -0.26709 0 0.499723 
237 2 19.5211 4.85399 0 0.812394 0.583732 0 1.00036 
376 2 19.9619 8.18389 0 1.70021 -0.223562 0 1.71484 
412 1 19.325 5.69871 0 0.336658 0.471027 0 0.578969 
263 1 20.6745 3.06788 0 -0.703437 -0.00567536 0 0.70346 
343 1 12.0255 10.1464 0 0.291647 0.221447 0 0.366192 
75 2 10.1979 5.17457 0 -0.25723 -0.643083 0 0.69262 
221 1 15.9405 10.0673 0 -0.937559 -1.58069 0 1.83782 
355 2 11.8474 18.7599 0 0.229522 -0.0566557 0 0.236412 
495 2 12.5091 14.8193 0 -0.891147 -0.289091 0 0.936865 
136 2 11.289 10.8166 0 -1.34017 -0.819269 0 1.57075 
215 2 11.0047 19.9232 0 0.209111 0.220296 0 0.30374 
410 1 14.9694 10.8149 0 -0.0386603 -0.923456 0 0.924264 
92 1 11.3341 13.4347 0 -0.367171 -0.110514 0 0.383442 
176 2 14.2998 15.2564 0 -0.0110963 -1.01431 0 1.01438 
440 2 17.1087 20.4192 0 0.176515 -0.318152 0 0.363839 
431 1 20.3696 18.9872 0 0.995228 1.16547 0 1.53258 
66 1 11.9282 19.6784 0 -0.0844167 0.173683 0 0.193111 
275 2 13.7804 11.1508 0 0.544026 0.338835 0 0.640916 
171 1 11.6287 15.1359 0 0.221166 -0.192188 0 0.293003 
285 1 14.0602 19.9846 0 0.116577 0.088303 0 0.146245 
491 1 13.556 17.6935 0 0.572815 0.0836957 0 0.578897 
497 2 10.7392 15.2913 0 0.195909 0.062729 0 0.205706 
345 1 11.1448 16.1157 0 0.33826 -0.042852 0 0.340964 
62 1 10.7686 11.5833 0 -1.09162 -0.255921 0 1.12122 
35 2 14.5335 13.5342 0 0.0986395 -0.0772202 0 0.125271 
101 1 10.8954 14.372 0 -0.270817 0.0347849 0 0.273042 
235 2 10.8198 12.7359 0 -1.14178 0.0649927 0 1.14363 
213 1 13.4666 14.8184 0 -0.0306666 -1.10044 0 1.10087 
291 1 12.1221 16.832 0 0.521045 -0.00133653 0 0.521046 
384 1 12.0185 11.3637 0 -0.28083 0.510295 0 0.582466 
265 1 11.5355 12.2862 0 -1.308 -0.25854 0 1.3333 
382 1 15.1334 15.4765 0 -0.013297 -0.823683 0 0.82379 
147 1 14.0841 12.7091 0 -0.346782 -0.00236564 0 0.34679 
500 2 11.9905 15.9636 0 0.156576 -0.11717 0 0.195563 
236 2 15.3258 11.7395 0 0.0930991 -0.844791 0 0.849906 
268 1 12.7685 18.5027 0 0.443419 0.0329121 0 0.444639 
121 1 15.2415 18.6445 0 0.334045 -0.780999 0 0.849439 
107 1 20.3911 10.8779 0 0.180334 1.02794 0 1.04364 
183 1 13.9529 16.0389 0 0.202196 -0.77388 0 0.799858 
44 1 14.8696 16.6478 0 0.254822 -0.58533 0 0.638392 
267 1 15.4741 13.6867 0 0.648543 -0.638096 0 0.909821 
99 2 12.412 12.1442 0 -1.22298 -0.286666 0 1.25613 
478 2 12.1397 13.1174 0 -0.497273 -0.230557 0 0.548122 
118 2 12.7106 17.5924 0 0.566228 0.10884 0 0.576594 
222 1 14.6183 17.7539 0 0.179255 -0.573701 0 0.601054 
29 1 10.213 13.4694 0 -0.868363 0.92216 0 1.26666 
493 1 12.9538 12.8883 0 -0.672079 -0.361826 0 0.763288 
16 2 12.389 20.4395 0 -0.0456982 0.252463 0 0.256565 
153 1 13.6262 13.7421 0 -0.233536 -0.523226 0 0.572979 
130 1 12.9658 19.8205 0 -0.0365919 0.409625 0 0.411256 
214 2 14.0037 16.9714 0 0.112617 -0.739842 0 0.748364 
437 2 14.6304 19.3476 0 0.470803 0.271779 0 0.543617 
98 2 11.7779 14.2529 0 -0.272132 -0.00915573 0 0.272286 
208 1 14.6382 14.4378 0 0.363276 -0.867495 0 0.940488 
52 1 12.8029 15.6427 0 0.304948 0.180431 0 0.354328 
243 1 13.1446 16.7617 0 0.559492 0.156084 0 0.580856 
132 1 11.018 19.0449 0 0.298555 0.188721 0 0.3532 
84 1 13.3463 11.9096 0 -0.109951 0.303706 0 0.322996 
323 1 11.8415 17.8607 0 0.611416 -0.10069 0 0.619651 
253 1 15.1168 20.178 0 0.361476 -0.602284 0 0.702432 
64 1 15.8348 14.6904 0 0.569487 -0.561161 0 0.799511 
342 1 12.6104 13.8879 0 -0.295228 -0.539758 0 0.615222 
169 1 13.8776 18.7146 0 0.458368 0.249303 0 0.521779 
57 2 10.369 10.8515 0 0.338446 0.0967223 0 0.351995 
288 1 14.4584 11.7032 0 0.221271 0.720541 0 0.753751 
108 1 20.6962 14.6049 0 -1.17978 -0.0220769 0 1.17999 
303 1 15.1556 12.6021 0 -0.11468 -0.894374 0 0.901696 
374 2 15.771 16.388 0 0.576546 -1.43997 0 1.5511 
239 2 10.9586 18.1109 0 0.620113 0.0503699 0 0.622155 
20 2 18.0737 20.2144 0 -0.314193 1.02207 0 1.06927 
328 1 16.3076 15.6936 0 0.251625 -0.50904 0 0.567835 
423 1 17.1783 13.445 0 0.110682 -0.928586 0 0.935159 
477 2 19.3292 12.3889 0 0.446682 -0.240025 0 0.507087 
266 1 16.9761 14.4562 0 0.59782 -0.790504 0 0.991103 
469 1 20.2913 11.9167 0 0.29413 1.12303 0 1.16091 
297 2 11.2344 16.9912 0 1.09898 0.363401 0 1.15751 
201 1 10.1846 20.3059 0 0.159344 0.375659 0 0.408057 
415 2 17.1518 15.3037 0 0.408374 -1.54918 0 1.60211 
322 1 18.674 16.7892 0 -9.56015e-05 1.17972 0 1.17972 
445 1 19.1439 11.4318 0 0.0591201 -0.198428 0 0.207048 
248 1 19.0131 14.6592 0 -0.245443 1.21493 0 1.23947 
105 1 20.5441 17.8038 0 -1.00213 0.204045 0 1.02269 
331 1 15.6501 17.3589 0 0.174845 -1.25324 0 1.26538 
406 1 17.4548 16.1527 0 -0.335368 -1.08074 0 1.13158 
372 1 16.5653 16.7768 0 0.574911 -0.54214 0 0.790214 
276 2 15.862 10.9434 0 -0.953666 -1.6342 0 1.89211 
357 2 17.1881 18.7328 0 0.0406017 -0.822043 0 0.823045 
119 2 19.5067 19.2894 0 0.291116 0.601886 0 0.668592 
196 2 10.3259 16.5776 0 0.402634 0.720226 0 0.82513 
179 2 17.9759 13.1053 0 0.173343 -1.09346 0 1.10712 
36 2 19.7672 18.3077 0 1.15759 0.797672 0 1.40581 
383 1 18.4114 12.3392 0 0.155752 -1.23214 0 1.24194 
456 2 18.0835 19.026 0 0.456449 0.980639 0 1.08166 
326 1 17.367 12.3454 0 0.190953 -0.972203 0 0.990778 
279 2 18.3089 15.938 0 0.474754 0.0218779 0 0.475258 
314 2 19.5758 16.5603 0 0.140749 0.687573 0 0.701831 
207 1 16.3253 18.9317 0 -0.0932808 -1.02168 0 1.02593 
197 2 15.6424 19.4491 0 0.105457 -0.714415 0 0.722156 
393 1 18.9031 13.2108 0 -1.43681 -0.0361142 0 1.43726 
306 1 17.9849 11.3057 0 -0.192562 -0.721263 0 0.746526 
110 1 18.1581 14.0186 0 0.4916 -1.06516 0 1.17314 
377 2 18.6178 17.6902 0 0.133544 1.09023 0 1.09838 
290 1 18.032 15.1158 0 0.97467 -0.832578 0 1.28186 
14 2 17.1397 11.5427 0 -0.725168 -1.22801 0 1.42614 
67 1 18.8815 18.564 0 0.449704 0.227763 0 0.504093 
270 1 17.8783 18.2253 0 0.249828 -0.623994 0 0.672148 
134 2 16.0014 18.1263 0 0.239376 -1.21428 0 1.23765 
162 1 19.498 17.4405 0 0.224459 0.694991 0 0.730338 
272 1 17.3901 19.599 0 -0.516552 -0.235709 0 0.56779 
427 1 17.705 17.174 0 0.800815 -0.707724 0 1.06873 
471 1 16.7512 10.7798 0 -0.871568 -0.166913 0 0.887406 
390 1 20.2064 20.005 0 0.102188 1.37185 0 1.37565 
262 1 20.3023 15.7478 0 0.225437 0.456127 0 0.508796 
81 1 19.1956 15.749 0 0.462016 1.33706 0 1.41463 
292 1 19.9991 12.9981 0 0.34531 0.456217 0 0.572165 
212 1 18.7041 19.6459 0 -0.449012 0.173149 0 0.481241 
246 1 16.2735 12.9752 0 0.0719259 -0.782241 0 0.785541 
180 2 19.4017 10.5441 0 0.179468 0.188971 0 0.260612 
51 1 16.8781 17.9166 0 0.288412 -1.00044 0 1.04118 
149 1 18.5204 10.4077 0 -0.56011 0.887205 0 1.04922 
475 2 19.8078 15.0016 0 0.482047 -0.0434617 0 0.484002 
395 2 16.3023 13.9017 0 0.654504 -0.656772 0 0.927213 
370 1 19.8 14.0156 0 -0.187348 -0.204259 0 0.277166 
37 2 17.6501 10.5129 0 -0.68442 -0.621425 0 0.924446 
492 1 16.3314 11.9116 0 0.289759 -0.792676 0 0.843976 
468 1 12.9494 10.7356 0 0.0778301 0.86409 0 0.867588 
190 1 20.4216 16.752 0 -0.995583 0.485207 0 1.10753 
111 1 10.4019 17.4277 0 -0.216954 0.206764 0 0.2997 
485 1 16.2828 20.0415 0 0.271315 -1.08677 0 1.12012 
19 2 19.3777 20.2124 0 -0.147974 0.0349104 0 0.152036 
34 2 10.1325 19.3553 0 0.227681 0.257227 0 0.343518 
31 1 13.9125 10.2576 0 0.170579 0.162179 0 0.23537 
